 Entering Gaussian System, Link 0=g98
 Initial command:
 /usr/local/apps/g98/g98_rev_A7/g98/l1.exe /var/tmp/colvin/Gau-6887.inp -scrdir=/var/tmp/colvin/
 Entering Link 1 = /usr/local/apps/g98/g98_rev_A7/g98/l1.exe PID=      8765.
  
 Copyright (c) 1988,1990,1992,1993,1995,1998 Gaussian, Inc.
                  All Rights Reserved.
  
 This is part of the Gaussian(R) 98 program.  It is based on
 the Gaussian 94(TM) system (copyright 1995 Gaussian, Inc.),
 the Gaussian 92(TM) system (copyright 1992 Gaussian, Inc.),
 the Gaussian 90(TM) system (copyright 1990 Gaussian, Inc.),
 the Gaussian 88(TM) system (copyright 1988 Gaussian, Inc.),
 the Gaussian 86(TM) system (copyright 1986 Carnegie Mellon
 University), and the Gaussian 82(TM) system (copyright 1983
 Carnegie Mellon University). Gaussian is a federally registered
 trademark of Gaussian, Inc.
  
 This software contains proprietary and confidential information,
 including trade secrets, belonging to Gaussian, Inc.
  
 This software is provided under written license and may be
 used, copied, transmitted, or stored only in accord with that
 written license.
  
 The following legend is applicable only to US Government
 contracts under DFARS:
  
                    RESTRICTED RIGHTS LEGEND
  
 Use, duplication or disclosure by the US Government is subject
 to restrictions as set forth in subparagraph (c)(1)(ii) of the
 Rights in Technical Data and Computer Software clause at DFARS
 252.227-7013.
  
 Gaussian, Inc.
 Carnegie Office Park, Building 6, Pittsburgh, PA 15106 USA
  
 The following legend is applicable only to US Government
 contracts under FAR:
  
                    RESTRICTED RIGHTS LEGEND
  
 Use, reproduction and disclosure by the US Government is subject
 to restrictions as set forth in subparagraph (c) of the
 Commercial Computer Software - Restricted Rights clause at FAR
 52.227-19.
  
 Gaussian, Inc.
 Carnegie Office Park, Building 6, Pittsburgh, PA 15106 USA
  
  
 ---------------------------------------------------------------
 Warning -- This program may not be used in any manner that
 competes with the business of Gaussian, Inc. or will provide
 assistance to any competitor of Gaussian, Inc.  The licensee
 of this program is prohibited from giving any competitor of
 Gaussian, Inc. access to this program.  By using this program,
 the user acknowledges that Gaussian, Inc. is engaged in the
 business of creating and licensing software in the field of
 computational chemistry and represents and warrants to the
 licensee that it is not a competitor of Gaussian, Inc. and that
 it will not use this program in any manner prohibited above.
 ---------------------------------------------------------------
  

 Cite this work as:
 Gaussian 98, Revision A.7,
 M. J. Frisch, G. W. Trucks, H. B. Schlegel, G. E. Scuseria, 
 M. A. Robb, J. R. Cheeseman, V. G. Zakrzewski, J. A. Montgomery, Jr., 
 R. E. Stratmann, J. C. Burant, S. Dapprich, J. M. Millam, 
 A. D. Daniels, K. N. Kudin, M. C. Strain, O. Farkas, J. Tomasi, 
 V. Barone, M. Cossi, R. Cammi, B. Mennucci, C. Pomelli, C. Adamo, 
 S. Clifford, J. Ochterski, G. A. Petersson, P. Y. Ayala, Q. Cui, 
 K. Morokuma, D. K. Malick, A. D. Rabuck, K. Raghavachari, 
 J. B. Foresman, J. Cioslowski, J. V. Ortiz, A. G. Baboul, 
 B. B. Stefanov, G. Liu, A. Liashenko, P. Piskorz, I. Komaromi, 
 R. Gomperts, R. L. Martin, D. J. Fox, T. Keith, M. A. Al-Laham, 
 C. Y. Peng, A. Nanayakkara, C. Gonzalez, M. Challacombe, 
 P. M. W. Gill, B. Johnson, W. Chen, M. W. Wong, J. L. Andres, 
 C. Gonzalez, M. Head-Gordon, E. S. Replogle, and J. A. Pople, 
 Gaussian, Inc., Pittsburgh PA, 1998.

 *************************************************
 Gaussian 98:  DEC-AXP-OSF/1-G98RevA.7 11-Apr-1999
                     6-Nov-1999 
 *************************************************
 %chk=POCCN.chk
 ---------------------------------
 #p opt rb3lyp/6-31+g(d,p) pop=nbo
 ---------------------------------
 1/14=-1,18=20,26=3,38=1/1,3;
 2/9=110,17=6,18=5/2;
 3/5=1,6=6,7=111,11=2,25=1,30=1/1,2,3;
 4/7=1/1;
 5/5=2,38=4,42=-5/2;
 6/7=2,8=2,9=2,10=2,28=1/1,7;
 7//1,2,3,16;
 1/14=-1,18=20/3(1);
 99//99;
 2/9=110/2;
 3/5=1,6=6,7=111,11=2,25=1,30=1/1,2,3;
 4/5=5,7=1,16=2/1;
 5/5=2,38=4,42=-5/2;
 7//1,2,3,16;
 1/14=-1,18=20/3(-5);
 2/9=110/2;
 6/7=2,8=2,9=2,10=2,19=2,28=1/1,7;
 99/9=1/99;
 Leave Link    1 at Sat Nov  6 13:58:01 1999, MaxMem=          0 cpu:       0.3
 (Enter /usr/local/apps/g98/g98_rev_A7/g98/l101.exe)
 ------------------
 PM anion struct 2d
 ------------------
 Symbolic Z-matrix:
 Charge =  0 Multiplicity = 1
 C
 C                    1    B1
 H                    2    B2       1    A1
 H                    2    B3       1    A2       3    D1       0
 N                    2    B4       1    A3       3    D2       0
 H                    5    B5       2    A4       1    D3       0
 P                    5    B6       2    A5       1    D4       0
 O                    7    B7       5    A6       2    D5       0
 O                    7    B8       5    A7       2    D6       0
 N                    7    B9       5    A8       2    D7       0
 H                    10   B10      7    A9       5    D8       0
 H                    10   B11      7    A10      5    D9       0
 H                    1    B12      2    A11      5    D10      0
 H                    1    B13      2    A12      5    D11      0
       Variables:
  B1                    1.56914                  
  B2                    1.10285                  
  B3                    1.09108                  
  B4                    1.46289                  
  B5                    1.01304                  
  B6                    1.70645                  
  B7                    1.67473                  
  B8                    1.50284                  
  B9                    1.73537                  
  B10                   1.01447                  
  B11                   1.01469                  
  B12                   1.07                     
  B13                   1.07                     
  A1                  107.77235                  
  A2                  119.34006                  
  A3                   99.13505                  
  A4                  114.67362                  
  A5                  113.53854                  
  A6                   87.62327                  
  A7                  111.64918                  
  A8                  107.51061                  
  A9                  110.63836                  
  A10                 112.33254                  
  A11                 110.25963                  
  A12                 110.25963                  
  D1                  123.27591                  
  D2                 -118.41907                  
  D3                 -179.2512                   
  D4                   42.32773                  
  D5                  -29.46928                  
  D6                 -163.30411                  
  D7                   79.35624                  
  D8                  130.63721                  
  D9                 -105.8102                   
  D10                  83.2523                   
  D11                -154.70308                  
 Leave Link  101 at Sat Nov  6 13:58:02 1999, MaxMem=    6291456 cpu:       0.4
 (Enter /usr/local/apps/g98/g98_rev_A7/g98/l103.exe)

 GradGradGradGradGradGradGradGradGradGradGradGradGradGradGradGradGradGrad
 Berny optimization.
 Initialization pass.
                         ----------------------------
                         !    Initial Parameters    !
                         ! (Angstroms and Degrees)  !
 ------------------------                            -------------------------
 ! Name  Definition              Value          Derivative Info.             !
 -----------------------------------------------------------------------------
 ! R1    R(1,2)                  1.5691         estimate D2E/DX2             !
 ! R2    R(1,8)                  1.41           estimate D2E/DX2             !
 ! R3    R(1,13)                 1.07           estimate D2E/DX2             !
 ! R4    R(1,14)                 1.07           estimate D2E/DX2             !
 ! R5    R(2,3)                  1.1028         estimate D2E/DX2             !
 ! R6    R(2,4)                  1.0911         estimate D2E/DX2             !
 ! R7    R(2,5)                  1.4629         estimate D2E/DX2             !
 ! R8    R(5,6)                  1.013          estimate D2E/DX2             !
 ! R9    R(5,7)                  1.7065         estimate D2E/DX2             !
 ! R10   R(7,8)                  1.6747         estimate D2E/DX2             !
 ! R11   R(7,9)                  1.5028         estimate D2E/DX2             !
 ! R12   R(7,10)                 1.7354         estimate D2E/DX2             !
 ! R13   R(10,11)                1.0145         estimate D2E/DX2             !
 ! R14   R(10,12)                1.0147         estimate D2E/DX2             !
 ! A1    A(2,1,8)              105.3934         estimate D2E/DX2             !
 ! A2    A(2,1,13)             110.2596         estimate D2E/DX2             !
 ! A3    A(2,1,14)             110.2596         estimate D2E/DX2             !
 ! A4    A(8,1,13)             110.2596         estimate D2E/DX2             !
 ! A5    A(8,1,14)             110.2596         estimate D2E/DX2             !
 ! A6    A(13,1,14)            110.3072         estimate D2E/DX2             !
 ! A7    A(1,2,3)              107.7723         estimate D2E/DX2             !
 ! A8    A(1,2,4)              119.3401         estimate D2E/DX2             !
 ! A9    A(1,2,5)               99.1351         estimate D2E/DX2             !
 ! A10   A(3,2,4)              107.8125         estimate D2E/DX2             !
 ! A11   A(3,2,5)              113.5155         estimate D2E/DX2             !
 ! A12   A(4,2,5)              109.2875         estimate D2E/DX2             !
 ! A13   A(2,5,6)              114.6736         estimate D2E/DX2             !
 ! A14   A(2,5,7)              113.5385         estimate D2E/DX2             !
 ! A15   A(6,5,7)              117.1596         estimate D2E/DX2             !
 ! A16   A(5,7,8)               87.6233         estimate D2E/DX2             !
 ! A17   A(5,7,9)              111.6492         estimate D2E/DX2             !
 ! A18   A(5,7,10)             107.5106         estimate D2E/DX2             !
 ! A19   A(8,7,9)              131.1835         estimate D2E/DX2             !
 ! A20   A(8,7,10)             108.6597         estimate D2E/DX2             !
 ! A21   A(9,7,10)             107.2226         estimate D2E/DX2             !
 ! A22   A(1,8,7)              117.7639         estimate D2E/DX2             !
 ! A23   A(7,10,11)            110.6384         estimate D2E/DX2             !
 ! A24   A(7,10,12)            112.3325         estimate D2E/DX2             !
 ! A25   A(11,10,12)           110.1516         estimate D2E/DX2             !
 ! D1    D(8,1,2,3)             82.6937         estimate D2E/DX2             !
 ! D2    D(8,1,2,4)           -154.0304         estimate D2E/DX2             !
 ! D3    D(8,1,2,5)            -35.7254         estimate D2E/DX2             !
 ! D4    D(13,1,2,3)          -158.3286         estimate D2E/DX2             !
 ! D5    D(13,1,2,4)           -35.0527         estimate D2E/DX2             !
 ! D6    D(13,1,2,5)            83.2523         estimate D2E/DX2             !
 ! D7    D(14,1,2,3)           -36.284          estimate D2E/DX2             !
 ! D8    D(14,1,2,4)            86.9919         estimate D2E/DX2             !
 ! D9    D(14,1,2,5)          -154.7031         estimate D2E/DX2             !
 ! D10   D(2,1,8,7)             19.2355         estimate D2E/DX2             !
 ! D11   D(13,1,8,7)           -99.7422         estimate D2E/DX2             !
 ! D12   D(14,1,8,7)           138.2132         estimate D2E/DX2             !
 ! D13   D(1,2,5,6)           -179.2512         estimate D2E/DX2             !
 ! D14   D(1,2,5,7)             42.3277         estimate D2E/DX2             !
 ! D15   D(3,2,5,6)             66.7243         estimate D2E/DX2             !
 ! D16   D(3,2,5,7)            -71.6968         estimate D2E/DX2             !
 ! D17   D(4,2,5,6)            -53.6549         estimate D2E/DX2             !
 ! D18   D(4,2,5,7)            167.924          estimate D2E/DX2             !
 ! D19   D(2,5,7,8)            -29.4693         estimate D2E/DX2             !
 ! D20   D(2,5,7,9)           -163.3041         estimate D2E/DX2             !
 ! D21   D(2,5,7,10)            79.3562         estimate D2E/DX2             !
 ! D22   D(6,5,7,8)           -166.7977         estimate D2E/DX2             !
 ! D23   D(6,5,7,9)             59.3675         estimate D2E/DX2             !
 ! D24   D(6,5,7,10)           -57.9722         estimate D2E/DX2             !
 ! D25   D(5,7,8,1)              4.088          estimate D2E/DX2             !
 ! D26   D(9,7,8,1)            121.1081         estimate D2E/DX2             !
 ! D27   D(10,7,8,1)          -103.5999         estimate D2E/DX2             !
 ! D28   D(5,7,10,11)          130.6372         estimate D2E/DX2             !
 ! D29   D(5,7,10,12)         -105.8102         estimate D2E/DX2             !
 ! D30   D(8,7,10,11)         -135.8858         estimate D2E/DX2             !
 ! D31   D(8,7,10,12)          -12.3332         estimate D2E/DX2             !
 ! D32   D(9,7,10,11)           10.4512         estimate D2E/DX2             !
 ! D33   D(9,7,10,12)          134.0038         estimate D2E/DX2             !
 -----------------------------------------------------------------------------
 Trust Radius=3.00D-01 FncErr=1.00D-07 GrdErr=1.00D-06
 Number of steps in this run=  82 maximum allowed number of steps= 100.
 GradGradGradGradGradGradGradGradGradGradGradGradGradGradGradGradGradGrad

 Leave Link  103 at Sat Nov  6 13:58:03 1999, MaxMem=    6291456 cpu:       0.2
 (Enter /usr/local/apps/g98/g98_rev_A7/g98/l202.exe)
                          Input orientation:                          
 ---------------------------------------------------------------------
 Center     Atomic     Atomic              Coordinates (Angstroms)
 Number     Number      Type              X           Y           Z
 ---------------------------------------------------------------------
    1          6             0        0.000000    0.000000    0.000000
    2          6             0        0.000000    0.000000    1.569137
    3          1             0        1.050217    0.000000    1.905766
    4          1             0       -0.521856    0.795179    2.103759
    5          7             0       -0.687384   -1.270280    1.801389
    6          1             0       -0.827126   -1.503243    2.777329
    7         15             0       -0.168489   -2.524909    0.767639
    8          8             0        0.172883   -1.348379   -0.374278
    9          8             0       -1.144199   -3.667792    0.749739
   10          7             0        1.327747   -3.136530    1.399066
   11          1             0        1.301615   -4.148625    1.463356
   12          1             0        2.127664   -2.841753    0.848761
   13          1             0       -0.932851    0.370687   -0.370514
   14          1             0        0.809159    0.594039   -0.370514
 ---------------------------------------------------------------------
                    Distance matrix (angstroms):
                    1          2          3          4          5
     1  C    0.000000
     2  C    1.569137   0.000000
     3  H    2.175982   1.102848   0.000000
     4  H    2.308776   1.091084   1.772829   0.000000
     5  N    2.308920   1.462891   2.154939   2.094027   0.000000
     6  H    3.264572   2.098477   2.558081   2.414462   1.013044
     7  P    2.644394   2.654421   3.025845   3.596257   1.706453
     8  O    1.410000   2.371682   2.790419   3.349354   2.340872
     9  O    3.914588   3.928524   4.427703   4.705188   2.657576
    10  N    3.682135   3.410228   3.189293   4.401813   2.775879
    11  H    4.587668   4.349308   4.179715   5.308141   3.515004
    12  H    3.650056   3.622355   3.217718   4.671429   3.361774
    13  H    1.070000   2.184002   3.041614   2.543843   2.733164
    14  H    1.070000   2.184002   2.364834   2.816751   3.229936
                    6          7          8          9         10
     6  H    0.000000
     7  P    2.348713   0.000000
     8  O    3.310079   1.674733   0.000000
     9  O    2.982772   1.502835   2.894442   0.000000
    10  N    3.034915   1.735368   2.770549   2.610436   0.000000
    11  H    3.640894   2.298191   3.534446   2.592769   1.014471
    12  H    3.773826   2.319330   2.747209   3.375979   1.014691
    13  H    3.664929   3.203766   2.043979   4.196302   4.532360
    14  H    4.121278   3.461072   2.043979   4.820143   4.161429
                   11         12         13         14
    11  H    0.000000
    12  H    1.663730   0.000000
    13  H    5.364708   4.601429   0.000000
    14  H    5.108664   3.876822   1.756270   0.000000
 Stoichiometry    C2H7N2O2P
 Framework group  C1[X(C2H7N2O2P)]
 Deg. of freedom   36
 Full point group                 C1      NOp   1
 Largest Abelian subgroup         C1      NOp   1
 Largest concise Abelian subgroup C1      NOp   1
                         Standard orientation:                         
 ---------------------------------------------------------------------
 Center     Atomic     Atomic              Coordinates (Angstroms)
 Number     Number      Type              X           Y           Z
 ---------------------------------------------------------------------
    1          6             0        1.867134   -0.698573   -0.140458
    2          6             0        1.744162    0.806894    0.284558
    3          1             0        1.711553    0.844058    1.386297
    4          1             0        2.498077    1.520528   -0.051302
    5          7             0        0.463685    1.123034   -0.348281
    6          1             0        0.155788    2.080210   -0.224697
    7         15             0       -0.709125   -0.102577   -0.162877
    8          8             0        0.551232   -1.204227   -0.111909
    9          8             0       -1.841285    0.061429   -1.137468
   10          7             0       -1.377212    0.050904    1.431365
   11          1             0       -2.391059    0.045000    1.396290
   12          1             0       -1.044962   -0.673005    2.059985
   13          1             0        2.271242   -0.772829   -1.128427
   14          1             0        2.483573   -1.230414    0.553838
 ---------------------------------------------------------------------
 Rotational constants (GHZ):      3.9552652      1.8533320      1.8381140
 Isotopes: C-12,C-12,H-1,H-1,N-14,H-1,P-31,O-16,O-16,N-14,H-1,H-1,H-1,H-1
 Leave Link  202 at Sat Nov  6 13:58:03 1999, MaxMem=    6291456 cpu:       0.4
 (Enter /usr/local/apps/g98/g98_rev_A7/g98/l301.exe)
 Standard basis: 6-31+G(d,p) (6D, 7F)
 There are   172 symmetry adapted basis functions of A   symmetry.
 Crude estimate of integral set expansion from redundant integrals=1.000.
 Integral buffers will be    131072 words long.
 Raffenetti 2 integral format.
 Two-electron integral symmetry is turned on.
   172 basis functions      297 primitive gaussians
    32 alpha electrons       32 beta electrons
       nuclear repulsion energy       428.4508081896 Hartrees.
 Leave Link  301 at Sat Nov  6 13:58:04 1999, MaxMem=    6291456 cpu:       0.3
 (Enter /usr/local/apps/g98/g98_rev_A7/g98/l302.exe)
 One-electron integrals computed using PRISM.
 NBasis=   172 RedAO= T  NBF=   172
 NBsUse=   172 1.00D-04 NBFU=   172
 Leave Link  302 at Sat Nov  6 13:58:07 1999, MaxMem=    6291456 cpu:       2.1
 (Enter /usr/local/apps/g98/g98_rev_A7/g98/l303.exe)
 DipDrv:  MaxL=1.
 Leave Link  303 at Sat Nov  6 13:58:08 1999, MaxMem=    6291456 cpu:       0.8
 (Enter /usr/local/apps/g98/g98_rev_A7/g98/l401.exe)
 Projected CNDO Guess.
 Leave Link  401 at Sat Nov  6 13:58:10 1999, MaxMem=    6291456 cpu:       2.2
 (Enter /usr/local/apps/g98/g98_rev_A7/g98/l502.exe)
 IExCor= 402 DFT=T Ex=B+HF Corr=LYP ScaHFX= 0.2000
 ScaDFX=  0.8000  0.7200  1.0000  0.8100
 IRadAn=      0 IRanWt=     -1 IRanGd=            0 ICorTp=0
 Using DIIS extrapolation.
 Closed shell SCF:
 Requested convergence on RMS density matrix=1.00D-08 within  64 cycles.
 Requested convergence on MAX density matrix=1.00D-06.
 Integral symmetry usage will be decided dynamically.
 IEnd=    109539 IEndB=    109539 NGot=   6291456 MDV=   6215898
 LenX=   6215898
 Fock matrices will be formed incrementally for  20 cycles.

 Cycle   1  Pass 1  IDiag 1:
 Petite list used in FoFDir.
 MinBra= 0 MaxBra= 2 Meth= 1.
 IRaf=       0 NMat=   1 IRICut=       1 DoRegI=T DoRafI=F ISym2E= 1 JSym2E=1.
 E=-0.110749506523463D+04
 DIIS: error= 2.76D-01 at cycle   1.
 T= 2827. Gap= 0.126 NK=0 IS=    1 IE=  172
          NO(<0.9)=   0  NV(>0.1)=   0  32.00e < EF 0.00e >EF  Err=4.3D-11
 RMSDP=2.22D-02 MaxDP=5.18D-01

 Cycle   2  Pass 1  IDiag 1:
 RMSU=  2.15D-02    CP:  8.13D-01
 E=-0.110840568440536D+04 Delta-E=       -0.910619170726
 DIIS: error= 1.75D-01 at cycle   2.
 Coeff:-0.243D+00-0.757D+00
 T= 2749. Gap= 0.152 NK=4 IS=   25 IE=   46
          NO(<0.9)=   0  NV(>0.1)=   0  32.00e < EF 0.00e >EF  Err=0.0D+00
 RMSDP=1.99D-02 MaxDP=5.39D-01

 Cycle   3  Pass 1  IDiag 1:
 RMSU=  1.15D-02    CP:  8.09D-01  2.46D-01
 E=-0.110859548926930D+04 Delta-E=       -0.189804863944
 DIIS: error= 2.16D-01 at cycle   3.
 Coeff:-0.408D-01-0.482D+00-0.477D+00
 T= 2400. Gap= 0.246 NK=0 IS=    1 IE=  172
          NO(<0.9)=   0  NV(>0.1)=   0  32.00e < EF 0.00e >EF  Err=3.3D-11
 RMSDP=6.77D-03 MaxDP=3.11D-01

 Cycle   4  Pass 1  IDiag 1:
 RMSU=  4.43D-03    CP:  8.11D-01  3.96D-01  6.54D-01
 E=-0.111022346129537D+04 Delta-E=       -1.627972026063
 DIIS: error= 1.62D-02 at cycle   4.
 Coeff:-0.249D-02-0.106D+00-0.685D-01-0.823D+00
 T= 2100. Gap= 0.207 NK=0 IS=    1 IE=  172
          NO(<0.9)=   0  NV(>0.1)=   0  32.00e < EF 0.00e >EF  Err=5.5D-11
 RMSDP=2.25D-03 MaxDP=1.02D-01

 Cycle   5  Pass 1  IDiag 1:
 RMSU=  1.91D-03    CP:  8.16D-01  4.45D-01  6.06D-01  9.64D-01
 E=-0.111023038907219D+04 Delta-E=       -0.006927776824
 DIIS: error= 1.53D-02 at cycle   5.
 Coeff: 0.158D-03-0.308D-01-0.171D-02-0.487D+00-0.481D+00
 T= 1800. Gap= 0.234 NK=0 IS=    1 IE=  172
          NO(<0.9)=   0  NV(>0.1)=   0  32.00e < EF 0.00e >EF  Err=3.0D-11
 RMSDP=1.12D-03 MaxDP=3.32D-02

 Cycle   6  Pass 1  IDiag 1:
 RMSU=  5.68D-04    CP:  8.14D-01  4.48D-01  5.94D-01  1.00D+00  5.08D-01
 E=-0.111024842349936D+04 Delta-E=       -0.018034427167
 DIIS: error= 2.49D-03 at cycle   6.
 Coeff: 0.338D-03-0.411D-02 0.650D-03-0.133D+00-0.202D+00-0.662D+00
 T=  913. Gap= 0.232 NK=0 IS=    1 IE=  172
          NO(<0.9)=   0  NV(>0.1)=   0  32.00e < EF 0.00e >EF  Err=8.0D-12
 RMSDP=2.04D-04 MaxDP=5.76D-03

 Cycle   7  Pass 1  IDiag 1:
 RMSU=  1.66D-04    CP:  8.13D-01  4.45D-01  5.99D-01  9.96D-01  5.35D-01
                    CP:  9.13D-01
 E=-0.111024881708798D+04 Delta-E=       -0.000393588620
 DIIS: error= 1.09D-03 at cycle   7.
 Coeff: 0.174D-03 0.885D-03-0.689D-03-0.276D-01-0.733D-01-0.392D+00
 Coeff:-0.508D+00
 T=  560. Gap= 0.232 NK=0 IS=    1 IE=  172
          NO(<0.9)=   0  NV(>0.1)=   0  32.00e < EF 0.00e >EF  Err=0.0D+00
 RMSDP=8.46D-05 MaxDP=1.84D-03

 Cycle   8  Pass 1  IDiag 1:
 RMSU=  3.72D-05    CP:  8.14D-01  4.44D-01  6.01D-01  9.97D-01  5.37D-01
                    CP:  8.67D-01  6.17D-01
 E=-0.111024890752238D+04 Delta-E=       -0.000090434406
 DIIS: error= 4.20D-04 at cycle   8.
 Coeff: 0.496D-04 0.778D-03-0.423D-03-0.812D-02-0.300D-01-0.182D+00
 Coeff:-0.289D+00-0.491D+00
 RMSDP=2.03D-05 MaxDP=5.30D-04

 Cycle   9  Pass 1  IDiag 1:
 RMSU=  1.34D-05    CP:  8.14D-01  4.44D-01  6.01D-01  9.97D-01  5.41D-01
                    CP:  8.69D-01  6.18D-01  6.82D-01
 E=-0.111024891288193D+04 Delta-E=       -0.000005359550
 DIIS: error= 6.17D-05 at cycle   9.
 Coeff: 0.862D-05 0.299D-03-0.134D-03-0.484D-03-0.513D-02-0.371D-01
 Coeff:-0.651D-01-0.214D+00-0.679D+00
 RMSDP=5.44D-06 MaxDP=1.19D-04

 Cycle  10  Pass 1  IDiag 1:
 RMSU=  3.58D-06    CP:  8.14D-01  4.44D-01  6.01D-01  9.97D-01  5.40D-01
                    CP:  8.70D-01  6.27D-01  7.11D-01  7.59D-01
 E=-0.111024891317438D+04 Delta-E=       -0.000000292445
 DIIS: error= 1.43D-05 at cycle  10.
 Coeff: 0.911D-06 0.847D-04-0.306D-04 0.590D-04-0.742D-03-0.618D-02
 Coeff:-0.971D-02-0.603D-01-0.287D+00-0.637D+00
 RMSDP=1.61D-06 MaxDP=3.04D-05

 Cycle  11  Pass 1  IDiag 1:
 RMSU=  1.24D-06    CP:  8.14D-01  4.44D-01  6.01D-01  9.97D-01  5.40D-01
                    CP:  8.70D-01  6.26D-01  7.20D-01  7.73D-01  7.55D-01
 E=-0.111024891319178D+04 Delta-E=       -0.000000017402
 DIIS: error= 8.32D-06 at cycle  11.
 Coeff:-0.661D-06 0.171D-04-0.568D-05 0.131D-03 0.197D-03 0.766D-03
 Coeff: 0.237D-02-0.932D-02-0.851D-01-0.372D+00-0.537D+00
 RMSDP=6.37D-07 MaxDP=1.41D-05

 Cycle  12  Pass 1  IDiag 1:
 RMSU=  3.17D-07    CP:  8.14D-01  4.44D-01  6.01D-01  9.97D-01  5.40D-01
                    CP:  8.70D-01  6.25D-01  7.21D-01  7.89D-01  8.06D-01
                    CP:  6.51D-01
 E=-0.111024891319696D+04 Delta-E=       -0.000000005178
 DIIS: error= 1.64D-06 at cycle  12.
 Coeff:-0.350D-06 0.300D-05-0.681D-06 0.621D-04 0.139D-03 0.781D-03
 Coeff: 0.188D-02-0.881D-03-0.246D-01-0.140D+00-0.246D+00-0.592D+00
 RMSDP=1.21D-07 MaxDP=2.66D-06

 Cycle  13  Pass 1  IDiag 1:
 RMSU=  9.14D-08    CP:  8.14D-01  4.44D-01  6.01D-01  9.97D-01  5.40D-01
                    CP:  8.70D-01  6.25D-01  7.21D-01  7.90D-01  8.15D-01
                    CP:  6.77D-01  8.55D-01
 E=-0.111024891319714D+04 Delta-E=       -0.000000000182
 DIIS: error= 4.83D-07 at cycle  13.
 Coeff:-0.217D-07-0.459D-06 0.630D-06 0.119D-04 0.280D-04 0.195D-03
 Coeff: 0.467D-03 0.567D-03-0.445D-03-0.140D-01-0.389D-01-0.271D+00
 Coeff:-0.677D+00
 RMSDP=3.78D-08 MaxDP=7.62D-07

 Cycle  14  Pass 1  IDiag 1:
 RMSU=  2.24D-08    CP:  8.14D-01  4.44D-01  6.01D-01  9.97D-01  5.40D-01
                    CP:  8.70D-01  6.25D-01  7.21D-01  7.90D-01  8.17D-01
                    CP:  6.82D-01  8.87D-01  7.61D-01
 E=-0.111024891319716D+04 Delta-E=       -0.000000000022
 DIIS: error= 7.71D-08 at cycle  14.
 Coeff: 0.101D-07-0.382D-06 0.334D-06 0.101D-05 0.195D-05 0.146D-04
 Coeff: 0.174D-04 0.203D-03 0.121D-02 0.408D-02 0.254D-02-0.389D-01
 Coeff:-0.171D+00-0.799D+00
 RMSDP=9.18D-09 MaxDP=1.73D-07

 SCF Done:  E(RB+HF-LYP) =  -681.798105008     A.U. after   14 cycles
             Convg  =    0.9181D-08             -V/T =  2.0069
             S**2   =   0.0000
 KE= 6.771115936932D+02 PE=-2.463451136958D+03 EE= 6.760906300680D+02
 Leave Link  502 at Sat Nov  6 14:27:32 1999, MaxMem=    6291456 cpu:    1757.6
 (Enter /usr/local/apps/g98/g98_rev_A7/g98/l601.exe)
 Copying SCF densities to generalized density rwf, ISCF=0 IROHF=0.

 **********************************************************************

            Population analysis using the SCF density.

 **********************************************************************

 Alpha  occ. eigenvalues --  -77.23617 -19.19530 -19.12533 -14.36167 -14.34396
 Alpha  occ. eigenvalues --  -10.26300 -10.24265  -6.68159  -4.84665  -4.84429
 Alpha  occ. eigenvalues --   -4.84332  -1.07823  -0.98034  -0.90404  -0.88696
 Alpha  occ. eigenvalues --   -0.75833  -0.64777  -0.60180  -0.53850  -0.52287
 Alpha  occ. eigenvalues --   -0.52071  -0.48146  -0.45682  -0.41991  -0.41602
 Alpha  occ. eigenvalues --   -0.40049  -0.35783  -0.33312  -0.32340  -0.30530
 Alpha  occ. eigenvalues --   -0.29072  -0.25633
 Alpha virt. eigenvalues --   -0.02423  -0.00440   0.01462   0.02078   0.03411
 Alpha virt. eigenvalues --    0.04390   0.05311   0.06351   0.06696   0.07216
 Alpha virt. eigenvalues --    0.07907   0.09566   0.10297   0.11642   0.11942
 Alpha virt. eigenvalues --    0.12946   0.14189   0.14602   0.14869   0.16440
 Alpha virt. eigenvalues --    0.16725   0.17595   0.19477   0.20225   0.22298
 Alpha virt. eigenvalues --    0.22631   0.23630   0.24429   0.26374   0.26439
 Alpha virt. eigenvalues --    0.27336   0.27690   0.28283   0.29296   0.30846
 Alpha virt. eigenvalues --    0.31252   0.32131   0.33220   0.34234   0.34281
 Alpha virt. eigenvalues --    0.36471   0.38666   0.51678   0.53789   0.57132
 Alpha virt. eigenvalues --    0.58259   0.62607   0.63604   0.66089   0.66730
 Alpha virt. eigenvalues --    0.71331   0.72887   0.76792   0.86293   0.88184
 Alpha virt. eigenvalues --    0.90166   0.91451   0.94398   0.95104   0.96305
 Alpha virt. eigenvalues --    0.97362   1.01205   1.01374   1.03066   1.03820
 Alpha virt. eigenvalues --    1.05718   1.06856   1.07899   1.10028   1.12045
 Alpha virt. eigenvalues --    1.21166   1.24254   1.26254   1.27890   1.30015
 Alpha virt. eigenvalues --    1.31958   1.34517   1.38853   1.41456   1.45036
 Alpha virt. eigenvalues --    1.48653   1.52310   1.56009   1.58684   1.61997
 Alpha virt. eigenvalues --    1.63589   1.68802   1.78949   1.82246   1.84035
 Alpha virt. eigenvalues --    1.86291   1.86881   1.91120   1.94815   1.97035
 Alpha virt. eigenvalues --    1.98546   2.03716   2.06705   2.09131   2.10021
 Alpha virt. eigenvalues --    2.12267   2.16771   2.18568   2.23690   2.26103
 Alpha virt. eigenvalues --    2.29675   2.33553   2.37277   2.39963   2.40965
 Alpha virt. eigenvalues --    2.43591   2.49854   2.54916   2.55141   2.60681
 Alpha virt. eigenvalues --    2.62102   2.63476   2.65341   2.69189   2.75375
 Alpha virt. eigenvalues --    2.81241   2.87311   2.87355   2.91688   2.92690
 Alpha virt. eigenvalues --    2.98744   3.26122   3.30720   3.34462   3.41141
 Alpha virt. eigenvalues --    3.43076   3.47316   3.49734   3.60339   4.06129
 Alpha virt. eigenvalues --    4.15193   4.17669   4.33234   4.44765   4.66149
          Condensed to atoms (all electrons):
              1          2          3          4          5          6
  1  C    5.072229   0.218664  -0.064368  -0.015409  -0.000016  -0.000252
  2  C    0.218664   5.355995   0.439600   0.387649   0.009698  -0.020375
  3  H   -0.064368   0.439600   0.619377  -0.046035  -0.110124   0.000576
  4  H   -0.015409   0.387649  -0.046035   0.562597  -0.038185  -0.004135
  5  N   -0.000016   0.009698  -0.110124  -0.038185   7.783440   0.308766
  6  H   -0.000252  -0.020375   0.000576  -0.004135   0.308766   0.388064
  7  P   -0.048107  -0.063518  -0.012416   0.007087   0.192422  -0.003016
  8  O    0.123489  -0.053662   0.014457   0.002430  -0.123961   0.014288
  9  O    0.013374   0.016657   0.000136  -0.000477  -0.096881  -0.002047
 10  N   -0.017439   0.034001   0.018068  -0.003077  -0.191577   0.002708
 11  H   -0.001204   0.001702  -0.000048   0.000003   0.011355  -0.000114
 12  H    0.002313  -0.002073  -0.000509   0.000015   0.005985  -0.000053
 13  H    0.419105  -0.030925   0.004448  -0.004279  -0.007968  -0.000085
 14  H    0.431320  -0.073788  -0.004331   0.001423   0.007937  -0.000090
              7          8          9         10         11         12
  1  C   -0.048107   0.123489   0.013374  -0.017439  -0.001204   0.002313
  2  C   -0.063518  -0.053662   0.016657   0.034001   0.001702  -0.002073
  3  H   -0.012416   0.014457   0.000136   0.018068  -0.000048  -0.000509
  4  H    0.007087   0.002430  -0.000477  -0.003077   0.000003   0.000015
  5  N    0.192422  -0.123961  -0.096881  -0.191577   0.011355   0.005985
  6  H   -0.003016   0.014288  -0.002047   0.002708  -0.000114  -0.000053
  7  P   12.529226   0.077756   0.410098   0.098093  -0.006286   0.010406
  8  O    0.077756   8.822872  -0.077018  -0.043287   0.001519   0.005293
  9  O    0.410098  -0.077018   8.587716  -0.162919   0.003450   0.005210
 10  N    0.098093  -0.043287  -0.162919   7.569694   0.310630   0.286657
 11  H   -0.006286   0.001519   0.003450   0.310630   0.367637  -0.023923
 12  H    0.010406   0.005293   0.005210   0.286657  -0.023923   0.397721
 13  H    0.002597  -0.060366   0.002799  -0.001134   0.000002  -0.000003
 14  H   -0.004312  -0.042509  -0.000764   0.003147  -0.000002  -0.000046
             13         14
  1  C    0.419105   0.431320
  2  C   -0.030925  -0.073788
  3  H    0.004448  -0.004331
  4  H   -0.004279   0.001423
  5  N   -0.007968   0.007937
  6  H   -0.000085  -0.000090
  7  P    0.002597  -0.004312
  8  O   -0.060366  -0.042509
  9  O    0.002799  -0.000764
 10  N   -0.001134   0.003147
 11  H    0.000002  -0.000002
 12  H   -0.000003  -0.000046
 13  H    0.559953  -0.043141
 14  H   -0.043141   0.581324
 Total atomic charges:
              1
  1  C   -0.133699
  2  C   -0.219625
  3  H    0.141169
  4  H    0.150393
  5  N   -0.750890
  6  H    0.315764
  7  P    1.809970
  8  O   -0.661302
  9  O   -0.699334
 10  N   -0.903563
 11  H    0.335279
 12  H    0.313007
 13  H    0.158997
 14  H    0.143832
 Sum of Mulliken charges=   0.00000
 Atomic charges with hydrogens summed into heavy atoms:
              1
  1  C    0.169131
  2  C    0.071938
  3  H    0.000000
  4  H    0.000000
  5  N   -0.435125
  6  H    0.000000
  7  P    1.809970
  8  O   -0.661302
  9  O   -0.699334
 10  N   -0.255277
 11  H    0.000000
 12  H    0.000000
 13  H    0.000000
 14  H    0.000000
 Sum of Mulliken charges=   0.00000
 Electronic spatial extent (au):  <R**2>=   794.5383
 Charge=     0.0000 electrons
 Dipole moment (Debye):
    X=     3.1333    Y=     0.3805    Z=     3.5748  Tot=     4.7688
 Quadrupole moment (Debye-Ang):
   XX=   -46.2246   YY=   -47.6754   ZZ=   -51.8076
   XY=     1.3929   XZ=    -6.4338   YZ=    -1.8252
 Octapole moment (Debye-Ang**2):
  XXX=     9.4269  YYY=    10.7198  ZZZ=     8.0476  XYY=    -0.0116
  XXY=    -2.8575  XXZ=    15.6099  XZZ=     2.4427  YZZ=    -9.6216
  YYZ=     0.0886  XYZ=     3.0138
 Hexadecapole moment (Debye-Ang**3):
 XXXX=  -567.9473 YYYY=  -202.1458 ZZZZ=  -218.4692 XXXY=    -4.9012
 XXXZ=   -40.5520 YYYX=     2.8076 YYYZ=    -5.1299 ZZZX=   -13.8417
 ZZZY=   -11.9787 XXYY=  -129.6343 XXZZ=  -137.8782 YYZZ=   -75.9090
 XXYZ=    -3.3380 YYXZ=     1.6831 ZZXY=     2.9228
 N-N= 4.284508081896D+02 E-N=-2.463451139349D+03  KE= 6.771115936932D+02
 Leave Link  601 at Sat Nov  6 14:27:33 1999, MaxMem=    6291456 cpu:       1.0
 (Enter /usr/local/apps/g98/g98_rev_A7/g98/l607.exe)
 ******************************Gaussian NBO Version 3.1******************************
             N A T U R A L   A T O M I C   O R B I T A L   A N D
          N A T U R A L   B O N D   O R B I T A L   A N A L Y S I S
 ******************************Gaussian NBO Version 3.1******************************
       /RESON  / : Allow strongly delocalized NBO set

 Analyzing the SCF density

 Job title: PM anion struct 2d                                              

 Storage needed:     89602 in NPA,    119071 in NBO (   6291456 available)


 NATURAL POPULATIONS:  Natural atomic orbital occupancies 
                                                          
  NAO Atom No lang   Type(AO)    Occupancy      Energy    
 ---------------------------------------------------------
   1    C  1  s      Cor( 1s)     1.99938     -10.14194
   2    C  1  s      Val( 2s)     1.03778      -0.28287
   3    C  1  s      Ryd( 3s)     0.00277       1.23656
   4    C  1  s      Ryd( 4s)     0.00031       1.72267
   5    C  1  s      Ryd( 5s)     0.00002       3.18660
   6    C  1  px     Val( 2p)     0.79642      -0.08437
   7    C  1  px     Ryd( 4p)     0.00391       0.62676
   8    C  1  px     Ryd( 3p)     0.00040       0.20436
   9    C  1  py     Val( 2p)     1.01180      -0.10295
  10    C  1  py     Ryd( 4p)     0.00351       0.64881
  11    C  1  py     Ryd( 3p)     0.00026       0.17878
  12    C  1  pz     Val( 2p)     1.23574      -0.10756
  13    C  1  pz     Ryd( 4p)     0.00194       0.78845
  14    C  1  pz     Ryd( 3p)     0.00010       0.20646
  15    C  1  dxy    Ryd( 3d)     0.00107       2.17200
  16    C  1  dxz    Ryd( 3d)     0.00165       2.30101
  17    C  1  dyz    Ryd( 3d)     0.00074       2.12390
  18    C  1  dx2y2  Ryd( 3d)     0.00138       2.23702
  19    C  1  dz2    Ryd( 3d)     0.00144       2.30507

  20    C  2  s      Cor( 1s)     1.99951     -10.11576
  21    C  2  s      Val( 2s)     1.05575      -0.28950
  22    C  2  s      Ryd( 4s)     0.00187       1.21539
  23    C  2  s      Ryd( 3s)     0.00030       1.08915
  24    C  2  s      Ryd( 5s)     0.00003       3.84128
  25    C  2  px     Val( 2p)     0.97230      -0.09923
  26    C  2  px     Ryd( 4p)     0.00237       0.65754
  27    C  2  px     Ryd( 3p)     0.00026       0.20048
  28    C  2  py     Val( 2p)     1.08049      -0.11117
  29    C  2  py     Ryd( 4p)     0.00293       0.66194
  30    C  2  py     Ryd( 3p)     0.00038       0.17397
  31    C  2  pz     Val( 2p)     1.17120      -0.10601
  32    C  2  pz     Ryd( 4p)     0.00252       0.71195
  33    C  2  pz     Ryd( 3p)     0.00023       0.18098
  34    C  2  dxy    Ryd( 3d)     0.00093       2.19132
  35    C  2  dxz    Ryd( 3d)     0.00104       2.14431
  36    C  2  dyz    Ryd( 3d)     0.00053       2.05960
  37    C  2  dx2y2  Ryd( 3d)     0.00112       2.19744
  38    C  2  dz2    Ryd( 3d)     0.00196       2.37334

  39    H  3  s      Val( 1s)     0.78587       0.04703
  40    H  3  s      Ryd( 2s)     0.00229       0.75079
  41    H  3  px     Ryd( 2p)     0.00006       2.36011
  42    H  3  py     Ryd( 2p)     0.00004       2.36056
  43    H  3  pz     Ryd( 2p)     0.00051       3.05763

  44    H  4  s      Val( 1s)     0.75051       0.06596
  45    H  4  s      Ryd( 2s)     0.00106       0.70414
  46    H  4  px     Ryd( 2p)     0.00024       2.69771
  47    H  4  py     Ryd( 2p)     0.00025       2.65428
  48    H  4  pz     Ryd( 2p)     0.00008       2.43344

  49    N  5  s      Cor( 1s)     1.99958     -14.19335
  50    N  5  s      Val( 2s)     1.42857      -0.61859
  51    N  5  s      Ryd( 4s)     0.00377       1.09572
  52    N  5  s      Ryd( 3s)     0.00026       0.89060
  53    N  5  s      Ryd( 5s)     0.00003       4.03766
  54    N  5  px     Val( 2p)     1.35964      -0.25683
  55    N  5  px     Ryd( 3p)     0.00210       0.65383
  56    N  5  px     Ryd( 4p)     0.00031       0.80439
  57    N  5  py     Val( 2p)     1.45743      -0.26240
  58    N  5  py     Ryd( 4p)     0.00171       0.83876
  59    N  5  py     Ryd( 3p)     0.00091       0.71335
  60    N  5  pz     Val( 2p)     1.79428      -0.25593
  61    N  5  pz     Ryd( 3p)     0.00509       0.54116
  62    N  5  pz     Ryd( 4p)     0.00065       0.74318
  63    N  5  dxy    Ryd( 3d)     0.00193       2.24956
  64    N  5  dxz    Ryd( 3d)     0.00198       2.04240
  65    N  5  dyz    Ryd( 3d)     0.00135       1.90191
  66    N  5  dx2y2  Ryd( 3d)     0.00096       2.19669
  67    N  5  dz2    Ryd( 3d)     0.00180       2.06654

  68    H  6  s      Val( 1s)     0.56341       0.15279
  69    H  6  s      Ryd( 2s)     0.00086       0.78356
  70    H  6  px     Ryd( 2p)     0.00014       2.52418
  71    H  6  py     Ryd( 2p)     0.00049       3.15532
  72    H  6  pz     Ryd( 2p)     0.00037       2.39074

  73    P  7  s      Cor( 1s)     2.00000     -76.17783
  74    P  7  s      Cor( 2s)     1.99914      -7.58929
  75    P  7  s      Val( 3s)     0.83098      -0.31235
  76    P  7  s      Ryd( 5s)     0.00310       0.77329
  77    P  7  s      Ryd( 4s)     0.00037       0.66064
  78    P  7  s      Ryd( 6s)     0.00019       3.03467
  79    P  7  px     Cor( 2p)     1.99981      -4.83208
  80    P  7  px     Val( 3p)     0.51374       0.03443
  81    P  7  px     Ryd( 5p)     0.00504       0.49391
  82    P  7  px     Ryd( 4p)     0.00036       0.21775
  83    P  7  py     Cor( 2p)     1.99979      -4.83791
  84    P  7  py     Val( 3p)     0.58448      -0.05630
  85    P  7  py     Ryd( 5p)     0.00500       0.43008
  86    P  7  py     Ryd( 4p)     0.00036       0.19653
  87    P  7  pz     Cor( 2p)     1.99990      -4.83442
  88    P  7  pz     Val( 3p)     0.57317      -0.02463
  89    P  7  pz     Ryd( 5p)     0.00650       0.46341
  90    P  7  pz     Ryd( 4p)     0.00029       0.20724
  91    P  7  dxy    Ryd( 3d)     0.02548       1.05221
  92    P  7  dxz    Ryd( 3d)     0.01841       1.05063
  93    P  7  dyz    Ryd( 3d)     0.01372       0.80712
  94    P  7  dx2y2  Ryd( 3d)     0.00770       0.90809
  95    P  7  dz2    Ryd( 3d)     0.02497       0.99718

  96    O  8  s      Cor( 1s)     1.99979     -19.00299
  97    O  8  s      Val( 2s)     1.67996      -0.94404
  98    O  8  s      Ryd( 4s)     0.00203       1.59781
  99    O  8  s      Ryd( 3s)     0.00025       1.21518
 100    O  8  s      Ryd( 5s)     0.00005       3.67099
 101    O  8  px     Val( 2p)     1.45081      -0.36090
 102    O  8  px     Ryd( 3p)     0.00068       0.71922
 103    O  8  px     Ryd( 4p)     0.00038       1.27597
 104    O  8  py     Val( 2p)     1.80269      -0.36492
 105    O  8  py     Ryd( 3p)     0.00179       0.57497
 106    O  8  py     Ryd( 4p)     0.00036       1.17834
 107    O  8  pz     Val( 2p)     1.89688      -0.34014
 108    O  8  pz     Ryd( 3p)     0.00264       0.51652
 109    O  8  pz     Ryd( 4p)     0.00018       1.06725
 110    O  8  dxy    Ryd( 3d)     0.00421       2.29748
 111    O  8  dxz    Ryd( 3d)     0.00015       1.94809
 112    O  8  dyz    Ryd( 3d)     0.00264       1.85014
 113    O  8  dx2y2  Ryd( 3d)     0.00213       2.08388
 114    O  8  dz2    Ryd( 3d)     0.00213       2.07453

 115    O  9  s      Cor( 1s)     1.99988     -18.89836
 116    O  9  s      Val( 2s)     1.82691      -0.97315
 117    O  9  s      Ryd( 3s)     0.00057       1.43764
 118    O  9  s      Ryd( 4s)     0.00024       1.96483
 119    O  9  s      Ryd( 5s)     0.00003       3.16662
 120    O  9  px     Val( 2p)     1.69838      -0.30584
 121    O  9  px     Ryd( 3p)     0.00071       0.71296
 122    O  9  px     Ryd( 4p)     0.00012       1.07092
 123    O  9  py     Val( 2p)     1.73262      -0.26292
 124    O  9  py     Ryd( 3p)     0.00061       0.63810
 125    O  9  py     Ryd( 4p)     0.00005       0.94344
 126    O  9  pz     Val( 2p)     1.76524      -0.29554
 127    O  9  pz     Ryd( 3p)     0.00066       0.68399
 128    O  9  pz     Ryd( 4p)     0.00013       1.02514
 129    O  9  dxy    Ryd( 3d)     0.00290       1.92039
 130    O  9  dxz    Ryd( 3d)     0.00753       2.18291
 131    O  9  dyz    Ryd( 3d)     0.00252       1.90168
 132    O  9  dx2y2  Ryd( 3d)     0.00368       1.98610
 133    O  9  dz2    Ryd( 3d)     0.00411       1.95020

 134    N 10  s      Cor( 1s)     1.99971     -14.22622
 135    N 10  s      Val( 2s)     1.53132      -0.66263
 136    N 10  s      Ryd( 4s)     0.00293       0.97211
 137    N 10  s      Ryd( 3s)     0.00022       0.94045
 138    N 10  s      Ryd( 5s)     0.00001       3.98196
 139    N 10  px     Val( 2p)     1.47696      -0.24382
 140    N 10  px     Ryd( 3p)     0.00240       0.48968
 141    N 10  px     Ryd( 4p)     0.00041       0.83459
 142    N 10  py     Val( 2p)     1.73661      -0.26517
 143    N 10  py     Ryd( 3p)     0.00372       0.38425
 144    N 10  py     Ryd( 4p)     0.00012       0.76627
 145    N 10  pz     Val( 2p)     1.47359      -0.28235
 146    N 10  pz     Ryd( 3p)     0.00223       0.42463
 147    N 10  pz     Ryd( 4p)     0.00049       0.77521
 148    N 10  dxy    Ryd( 3d)     0.00128       1.88014
 149    N 10  dxz    Ryd( 3d)     0.00100       1.98863
 150    N 10  dyz    Ryd( 3d)     0.00254       2.05130
 151    N 10  dx2y2  Ryd( 3d)     0.00289       2.19770
 152    N 10  dz2    Ryd( 3d)     0.00196       2.09095

 153    H 11  s      Val( 1s)     0.55928       0.16008
 154    H 11  s      Ryd( 2s)     0.00093       0.68584
 155    H 11  px     Ryd( 2p)     0.00050       3.17728
 156    H 11  py     Ryd( 2p)     0.00031       2.36528
 157    H 11  pz     Ryd( 2p)     0.00016       2.40970

 158    H 12  s      Val( 1s)     0.57509       0.14553
 159    H 12  s      Ryd( 2s)     0.00074       0.68631
 160    H 12  px     Ryd( 2p)     0.00017       2.47688
 161    H 12  py     Ryd( 2p)     0.00045       2.76495
 162    H 12  pz     Ryd( 2p)     0.00040       2.67956

 163    H 13  s      Val( 1s)     0.77245       0.07650
 164    H 13  s      Ryd( 2s)     0.00153       0.71607
 165    H 13  px     Ryd( 2p)     0.00012       2.51673
 166    H 13  py     Ryd( 2p)     0.00006       2.36336
 167    H 13  pz     Ryd( 2p)     0.00054       2.99010

 168    H 14  s      Val( 1s)     0.77135       0.06927
 169    H 14  s      Ryd( 2s)     0.00086       0.70022
 170    H 14  px     Ryd( 2p)     0.00021       2.64295
 171    H 14  py     Ryd( 2p)     0.00021       2.52746
 172    H 14  pz     Ryd( 2p)     0.00025       2.67847

 WARNING:  Population inversion found on atom  C 1
           Population inversion found on atom  C 2
           Population inversion found on atom  N 5
           Population inversion found on atom  P 7
           Population inversion found on atom  O 8
           Population inversion found on atom  N10


 Summary of Natural Population Analysis:                  
                                                          
                                       Natural Population 
               Natural   -----------------------------------------------
    Atom No    Charge        Core      Valence    Rydberg      Total
 -----------------------------------------------------------------------
      C  1   -0.10062      1.99938     4.08174    0.01949     6.10062
      C  2   -0.29572      1.99951     4.27974    0.01647     6.29572
      H  3    0.21123      0.00000     0.78587    0.00290     0.78877
      H  4    0.24786      0.00000     0.75051    0.00164     0.75214
      N  5   -1.06236      1.99958     6.03992    0.02286     8.06236
      H  6    0.43474      0.00000     0.56341    0.00186     0.56526
      P  7    2.38751      9.99864     2.50236    0.11150    12.61249
      O  8   -0.84976      1.99979     6.83035    0.01962     8.84976
      O  9   -1.04689      1.99988     7.02314    0.02386     9.04689
      N 10   -1.24038      1.99971     6.21848    0.02220     8.24038
      H 11    0.43882      0.00000     0.55928    0.00190     0.56118
      H 12    0.42314      0.00000     0.57509    0.00176     0.57686
      H 13    0.22531      0.00000     0.77245    0.00224     0.77469
      H 14    0.22712      0.00000     0.77135    0.00153     0.77288
 =======================================================================
   * Total *  0.00000     21.99650    41.75368    0.24983    64.00000

                                 Natural Population      
 --------------------------------------------------------
   Core                      21.99650 ( 99.9841% of  22)
   Valence                   41.75368 ( 99.4135% of  42)
   Natural Minimal Basis     63.75017 ( 99.6096% of  64)
   Natural Rydberg Basis      0.24983 (  0.3904% of  64)
 --------------------------------------------------------

    Atom No         Natural Electron Configuration
 ----------------------------------------------------------------------------
      C  1      [core]2s( 1.04)2p( 3.04)3d( 0.01)4p( 0.01)
      C  2      [core]2s( 1.06)2p( 3.22)3d( 0.01)4p( 0.01)
      H  3            1s( 0.79)
      H  4            1s( 0.75)
      N  5      [core]2s( 1.43)2p( 4.61)3p( 0.01)3d( 0.01)
      H  6            1s( 0.56)
      P  7      [core]3s( 0.83)3p( 1.67)3d( 0.09)5p( 0.02)
      O  8      [core]2s( 1.68)2p( 5.15)3p( 0.01)3d( 0.01)
      O  9      [core]2s( 1.83)2p( 5.20)3d( 0.02)
      N 10      [core]2s( 1.53)2p( 4.69)3p( 0.01)3d( 0.01)
      H 11            1s( 0.56)
      H 12            1s( 0.58)
      H 13            1s( 0.77)
      H 14            1s( 0.77)


 NATURAL BOND ORBITAL ANALYSIS:

                       Occupancies       Lewis Structure    Low   High
           Occ.    -------------------  -----------------   occ   occ
  Cycle   Thresh.   Lewis   Non-Lewis     CR  BD  3C  LP    (L)   (NL)   Dev
 =============================================================================
   1(1)    1.90    62.45322   1.54678     11  17   0   4     6      7    0.08
   2(2)    1.90    62.45322   1.54678     11  17   0   4     6      7    0.08
   3(1)    1.80    63.05075   0.94925     11  15   0   6     0      5    0.08
 -----------------------------------------------------------------------------

 Structure accepted: No low occupancy Lewis orbitals

 --------------------------------------------------------
   Core                     21.99650 ( 99.984% of  22)
   Valence Lewis            41.05425 ( 97.748% of  42)
  ==================       ============================
   Total Lewis              63.05075 ( 98.517% of  64)
  -----------------------------------------------------
   Valence non-Lewis         0.80611 (  1.260% of  64)
   Rydberg non-Lewis         0.14314 (  0.224% of  64)
  ==================       ============================
   Total non-Lewis           0.94925 (  1.483% of  64)
 --------------------------------------------------------


     (Occupancy)   Bond orbital/ Coefficients/ Hybrids
 -------------------------------------------------------------------------------
   1. (1.98918) BD ( 1) C 1- C 2      
                ( 49.47%)   0.7033* C 1 s( 25.02%)p 2.99( 74.90%)d 0.00(  0.08%)
                                         0.0002  0.5000 -0.0135 -0.0004 -0.0020
                                        -0.0352  0.0181  0.0010  0.8325 -0.0011
                                        -0.0061  0.2329  0.0043 -0.0001 -0.0071
                                        -0.0015  0.0134 -0.0222 -0.0109
                ( 50.53%)   0.7109* C 2 s( 24.68%)p 3.05( 75.24%)d 0.00(  0.09%)
                                         0.0000  0.4968 -0.0033  0.0020 -0.0025
                                         0.1571  0.0136  0.0047 -0.8190  0.0033
                                         0.0057 -0.2379 -0.0002 -0.0015 -0.0002
                                         0.0004  0.0147 -0.0230 -0.0108
   2. (1.98862) BD ( 1) C 1- O 8      
                ( 30.95%)   0.5563* C 1 s( 20.61%)p 3.84( 79.17%)d 0.01(  0.22%)
                                        -0.0001  0.4521  0.0414 -0.0026  0.0021
                                        -0.8326 -0.0342  0.0030 -0.3092 -0.0373
                                         0.0031  0.0163  0.0015 -0.0002  0.0218
                                        -0.0025 -0.0001  0.0334 -0.0245
                ( 69.05%)   0.8310* O 8 s( 35.32%)p 1.83( 64.47%)d 0.01(  0.21%)
                                        -0.0002  0.5943 -0.0036 -0.0047 -0.0023
                                         0.7385 -0.0117 -0.0007  0.3145 -0.0013
                                        -0.0079 -0.0164 -0.0003 -0.0009  0.0355
                                        -0.0010 -0.0010  0.0118 -0.0258
   3. (1.98917) BD ( 1) C 1- H13      
                ( 61.80%)   0.7861* C 1 s( 27.17%)p 2.68( 72.74%)d 0.00(  0.09%)
                                        -0.0002  0.5211 -0.0085  0.0016  0.0004
                                         0.2954 -0.0005  0.0021 -0.0776 -0.0068
                                        -0.0041 -0.7962  0.0110 -0.0010 -0.0021
                                        -0.0166  0.0018  0.0016  0.0253
                ( 38.20%)   0.6181* H13 s( 99.92%)p 0.00(  0.08%)
                                         0.9996  0.0050 -0.0102  0.0025  0.0258
   4. (1.98668) BD ( 1) C 1- H14      
                ( 61.63%)   0.7851* C 1 s( 27.34%)p 2.65( 72.57%)d 0.00(  0.09%)
                                        -0.0002  0.5228 -0.0011  0.0008  0.0003
                                         0.4614 -0.0089  0.0031 -0.4498  0.0009
                                        -0.0042  0.5569 -0.0144 -0.0015 -0.0146
                                         0.0197 -0.0172  0.0000  0.0071
                ( 38.37%)   0.6194* H14 s( 99.93%)p 0.00(  0.07%)
                                         0.9996  0.0031 -0.0156  0.0139 -0.0167
   5. (1.99078) BD ( 1) C 2- H 3      
                ( 61.40%)   0.7836* C 2 s( 25.22%)p 2.96( 74.68%)d 0.00(  0.10%)
                                        -0.0001  0.5020 -0.0155 -0.0020  0.0008
                                        -0.0627  0.0126  0.0008  0.0424  0.0120
                                         0.0014  0.8607 -0.0079  0.0007  0.0011
                                        -0.0041 -0.0003 -0.0008  0.0306
                ( 38.60%)   0.6213* H 3 s( 99.93%)p 0.00(  0.07%)
                                         0.9996  0.0074  0.0008 -0.0020 -0.0254
   6. (1.98586) BD ( 1) C 2- H 4      
                ( 62.62%)   0.7913* C 2 s( 28.03%)p 2.56( 71.89%)d 0.00(  0.08%)
                                        -0.0002  0.5294  0.0014  0.0003  0.0012
                                         0.6028 -0.0116  0.0034  0.5206 -0.0113
                                         0.0029 -0.2898  0.0099  0.0014  0.0218
                                        -0.0122 -0.0113  0.0001 -0.0097
                ( 37.38%)   0.6114* H 4 s( 99.94%)p 0.00(  0.06%)
                                         0.9997  0.0034 -0.0171 -0.0170  0.0076
   7. (1.98835) BD ( 1) C 2- N 5      
                ( 39.28%)   0.6267* C 2 s( 22.13%)p 3.51( 77.73%)d 0.01(  0.14%)
                                         0.0000  0.4695  0.0287  0.0009  0.0002
                                        -0.7773 -0.0248  0.0022  0.2337  0.0300
                                        -0.0004 -0.3412 -0.0245  0.0048 -0.0098
                                         0.0243 -0.0041  0.0245 -0.0110
                ( 60.72%)   0.7793* N 5 s( 31.87%)p 2.13( 67.98%)d 0.00(  0.15%)
                                        -0.0001  0.5645  0.0079  0.0022 -0.0023
                                         0.7235  0.0231 -0.0033 -0.1656  0.0028
                                         0.0132  0.3577  0.0139 -0.0039 -0.0112
                                         0.0327 -0.0112  0.0128 -0.0049
   8. (1.98694) BD ( 1) N 5- H 6      
                ( 72.04%)   0.8487* N 5 s( 28.73%)p 2.48( 71.14%)d 0.00(  0.13%)
                                        -0.0002  0.5355  0.0219  0.0019  0.0005
                                        -0.2718 -0.0083 -0.0003  0.7946  0.0230
                                        -0.0002  0.0739 -0.0104  0.0001 -0.0169
                                        -0.0065  0.0203 -0.0185 -0.0161
                ( 27.96%)   0.5288* H 6 s( 99.91%)p 0.00(  0.09%)
                                         0.9995  0.0041  0.0089 -0.0289 -0.0013
   9. (1.92003) BD ( 1) N 5- P 7      
                ( 77.46%)   0.8801* N 5 s( 28.70%)p 2.48( 71.16%)d 0.00(  0.14%)
                                         0.0001 -0.5353  0.0224 -0.0009 -0.0001
                                         0.6045  0.0093 -0.0050  0.5771 -0.0037
                                        -0.0141 -0.1129  0.0034  0.0054 -0.0275
                                         0.0133  0.0160  0.0017  0.0155
                ( 22.54%)   0.4747* P 7 s( 22.42%)p 2.66( 59.66%)d 0.80( 17.92%)
                                         0.0000 -0.0001 -0.4709  0.0442 -0.0192
                                        -0.0121 -0.0001 -0.5362  0.0174  0.0115
                                        -0.0002 -0.5363  0.1097  0.0294  0.0002
                                         0.0888 -0.0182  0.0034 -0.4044  0.0292
                                        -0.1090  0.0539 -0.0030
  10. (1.88198) BD ( 1) P 7- O 8      
                ( 15.99%)   0.3999* P 7 s( 20.68%)p 2.23( 46.21%)d 1.60( 33.11%)
                                         0.0000  0.0003 -0.4531 -0.0177  0.0293
                                         0.0186  0.0000 -0.5027 -0.0166  0.0014
                                         0.0003  0.4336 -0.1375 -0.0463  0.0000
                                         0.0103 -0.0022 -0.0050  0.5182 -0.0394
                                         0.1600 -0.0810  0.1696
                ( 84.01%)   0.9166* O 8 s( 27.02%)p 2.69( 72.77%)d 0.01(  0.21%)
                                         0.0001 -0.5197 -0.0110 -0.0002  0.0013
                                         0.6515 -0.0104 -0.0059 -0.5496  0.0008
                                         0.0082  0.0316 -0.0009  0.0009  0.0373
                                        -0.0011  0.0022  0.0143  0.0220
  11. (1.97006) BD ( 1) P 7- O 9      
                ( 26.21%)   0.5120* P 7 s( 30.52%)p 2.15( 65.61%)d 0.13(  3.87%)
                                         0.0000  0.0003 -0.5520 -0.0217 -0.0095
                                        -0.0036  0.0002  0.4977 -0.0073 -0.0022
                                        -0.0001  0.2153  0.0373  0.0128  0.0000
                                         0.5999 -0.0243 -0.0006 -0.1514 -0.0890
                                        -0.0660 -0.0153 -0.0570
                ( 73.79%)   0.8590* O 9 s( 23.31%)p 3.27( 76.14%)d 0.02(  0.55%)
                                         0.0000 -0.4827 -0.0074 -0.0087  0.0007
                                        -0.6417  0.0119 -0.0020  0.4365 -0.0016
                                         0.0001 -0.3984  0.0124 -0.0011  0.0253
                                        -0.0575  0.0212 -0.0336 -0.0016
  12. (1.93350) BD ( 2) P 7- O 9      
                ( 10.69%)   0.3269* P 7 s(  2.38%)p24.46( 58.15%)d16.60( 39.48%)
                                         0.0000 -0.0004  0.1381  0.0558 -0.0353
                                        -0.0184  0.0001 -0.2977  0.0082  0.0122
                                        -0.0004  0.6841  0.1424  0.0429  0.0000
                                        -0.0481  0.0092  0.0124 -0.5530  0.0595
                                        -0.2361  0.0847 -0.1500
                ( 89.31%)   0.9451* O 9 s(  8.34%)p10.96( 91.33%)d 0.04(  0.33%)
                                         0.0000  0.2887  0.0013  0.0001 -0.0016
                                         0.1033 -0.0071  0.0007  0.8537  0.0068
                                         0.0004  0.4169 -0.0025  0.0017  0.0317
                                         0.0301  0.0284  0.0139  0.0199
  13. (1.96877) BD ( 1) P 7- N10      
                ( 27.85%)   0.5277* P 7 s( 24.86%)p 2.88( 71.69%)d 0.14(  3.44%)
                                         0.0000  0.0002 -0.4985  0.0108 -0.0056
                                        -0.0026  0.0001  0.3287 -0.0041 -0.0022
                                        -0.0001  0.0639  0.0364  0.0095 -0.0001
                                        -0.7756  0.0427  0.0034 -0.0822  0.0988
                                        -0.0266  0.0213 -0.1294
                ( 72.15%)   0.8494* N10 s( 24.30%)p 3.11( 75.55%)d 0.01(  0.15%)
                                         0.0000 -0.4922  0.0279 -0.0013 -0.0002
                                        -0.3319 -0.0054  0.0067  0.1387 -0.0023
                                        -0.0018  0.7911  0.0083 -0.0086  0.0088
                                         0.0178 -0.0187 -0.0003 -0.0280
  14. (1.99054) BD ( 1) N10- H11      
                ( 72.06%)   0.8489* N10 s( 29.22%)p 2.42( 70.61%)d 0.01(  0.17%)
                                         0.0002 -0.5405 -0.0099 -0.0038 -0.0003
                                         0.8387  0.0266  0.0027 -0.0341 -0.0113
                                         0.0021  0.0231 -0.0048 -0.0047 -0.0143
                                        -0.0110  0.0022 -0.0340  0.0142
                ( 27.94%)   0.5286* H11 s( 99.91%)p 0.00(  0.09%)
                                        -0.9996 -0.0019 -0.0296  0.0019 -0.0002
  15. (1.99019) BD ( 1) N10- H12      
                ( 71.29%)   0.8443* N10 s( 27.44%)p 2.64( 72.38%)d 0.01(  0.18%)
                                        -0.0002  0.5236  0.0134  0.0037  0.0002
                                         0.2978  0.0137 -0.0045 -0.5757 -0.0135
                                        -0.0003  0.5501  0.0256  0.0055 -0.0193
                                         0.0045 -0.0295 -0.0203 -0.0096
                ( 28.71%)   0.5358* H12 s( 99.92%)p 0.00(  0.08%)
                                         0.9996  0.0018 -0.0091  0.0190 -0.0199
  16. (1.99938) CR ( 1) C 1             s(100.00%)p 0.00(  0.00%)
                                         1.0000  0.0001  0.0000  0.0000  0.0000
                                         0.0001  0.0000  0.0000 -0.0003  0.0000
                                         0.0000 -0.0001  0.0000  0.0000  0.0000
                                         0.0000  0.0000  0.0000  0.0000
  17. (1.99951) CR ( 1) C 2             s(100.00%)p 0.00(  0.00%)
                                         1.0000  0.0001  0.0000  0.0000  0.0000
                                         0.0001  0.0000  0.0000  0.0001  0.0000
                                         0.0000  0.0000  0.0000  0.0000  0.0000
                                         0.0000  0.0000  0.0000  0.0000
  18. (1.99958) CR ( 1) N 5             s(100.00%)p 0.00(  0.00%)
                                         1.0000  0.0002  0.0000  0.0000  0.0000
                                        -0.0001  0.0000  0.0000  0.0001  0.0000
                                         0.0000  0.0003  0.0000  0.0000  0.0000
                                         0.0000  0.0000  0.0000  0.0000
  19. (2.00000) CR ( 1) P 7             s(100.00%)
                                         1.0000  0.0000  0.0000  0.0000  0.0000
                                         0.0000  0.0000  0.0000  0.0000  0.0000
                                         0.0000  0.0000  0.0000  0.0000  0.0000
                                         0.0000  0.0000  0.0000  0.0000  0.0000
                                         0.0000  0.0000  0.0000
  20. (1.99914) CR ( 2) P 7             s(100.00%)p 0.00(  0.00%)d 0.00(  0.00%)
                                         0.0000  1.0000  0.0004  0.0000  0.0000
                                         0.0000  0.0000 -0.0002  0.0000  0.0000
                                         0.0000  0.0000  0.0001  0.0000  0.0000
                                         0.0000  0.0000  0.0000 -0.0003  0.0000
                                        -0.0001  0.0001 -0.0001
  21. (1.99982) CR ( 3) P 7             s(  0.00%)p 1.00(100.00%)
                                         0.0000  0.0000  0.0001  0.0000  0.0000
                                         0.0000  1.0000 -0.0001  0.0000  0.0000
                                         0.0000 -0.0002  0.0000  0.0000  0.0000
                                         0.0000  0.0000  0.0000  0.0001  0.0000
                                         0.0000  0.0000  0.0000
  22. (1.99979) CR ( 4) P 7             s(  0.00%)p 1.00(100.00%)d 0.00(  0.00%)
                                         0.0000  0.0000  0.0000  0.0000  0.0000
                                         0.0000  0.0000  0.0000  0.0000  0.0000
                                         1.0000  0.0001  0.0001  0.0000  0.0000
                                         0.0000  0.0000  0.0000 -0.0005  0.0000
                                        -0.0002  0.0001 -0.0001
  23. (1.99990) CR ( 5) P 7             s(  0.00%)p 1.00(100.00%)
                                         0.0000  0.0000  0.0001  0.0000  0.0000
                                         0.0000  0.0000  0.0001  0.0000  0.0000
                                         0.0000  0.0001  0.0000  0.0000  1.0000
                                        -0.0001  0.0000  0.0000  0.0001  0.0000
                                         0.0000  0.0000  0.0000
  24. (1.99979) CR ( 1) O 8             s(100.00%)
                                         1.0000  0.0002  0.0000  0.0000  0.0000
                                         0.0000  0.0000  0.0000  0.0001  0.0000
                                         0.0000  0.0001  0.0000  0.0000  0.0000
                                         0.0000  0.0000  0.0000  0.0000
  25. (1.99988) CR ( 1) O 9             s(100.00%)p 0.00(  0.00%)
                                         1.0000  0.0002  0.0000  0.0000  0.0000
                                        -0.0002  0.0000  0.0000 -0.0001  0.0000
                                         0.0000  0.0000  0.0000  0.0000  0.0000
                                         0.0000  0.0000  0.0000  0.0000
  26. (1.99971) CR ( 1) N10             s(100.00%)p 0.00(  0.00%)
                                         1.0000  0.0001  0.0000  0.0000  0.0000
                                        -0.0001  0.0000  0.0000 -0.0003  0.0000
                                         0.0000  0.0000  0.0000  0.0000  0.0000
                                         0.0000  0.0000  0.0000  0.0000
  27. (1.89211) LP ( 1) N 5             s( 10.65%)p 8.39( 89.29%)d 0.01(  0.06%)
                                         0.0003  0.3262  0.0035 -0.0055  0.0018
                                         0.1848 -0.0088  0.0048 -0.0712  0.0030
                                         0.0059 -0.9233  0.0304 -0.0133  0.0019
                                         0.0094  0.0059 -0.0019 -0.0219
  28. (1.96355) LP ( 1) O 8             s( 37.60%)p 1.66( 62.30%)d 0.00(  0.10%)
                                         0.0000  0.6131 -0.0090  0.0033  0.0021
                                        -0.1639 -0.0054 -0.0003 -0.7706 -0.0034
                                        -0.0053  0.0480  0.0014  0.0005 -0.0097
                                         0.0000  0.0020  0.0267  0.0131
  29. (1.89989) LP ( 2) O 8             s(  0.00%)p 1.00( 99.86%)d 0.00(  0.13%)
                                        -0.0001 -0.0032  0.0041  0.0013 -0.0001
                                        -0.0005  0.0030 -0.0003  0.0597  0.0016
                                        -0.0008  0.9975  0.0077  0.0052  0.0004
                                         0.0002  0.0366 -0.0023 -0.0010
  30. (1.97762) LP ( 1) O 9             s( 68.26%)p 0.46( 31.68%)d 0.00(  0.06%)
                                        -0.0002  0.8262 -0.0041 -0.0036  0.0007
                                        -0.3956  0.0016  0.0051 -0.0357 -0.0020
                                        -0.0004 -0.3987  0.0028  0.0046 -0.0012
                                        -0.0207 -0.0006 -0.0108 -0.0061
  31. (1.84488) LP ( 2) O 9             s(  0.05%)p99.99( 99.67%)d 5.86(  0.28%)
                                        -0.0001  0.0219 -0.0018  0.0013 -0.0005
                                        -0.6451 -0.0041 -0.0013 -0.2762 -0.0023
                                        -0.0004  0.7101  0.0061  0.0013 -0.0065
                                         0.0063 -0.0143 -0.0275  0.0425
  32. (1.91554) LP ( 1) N10             s( 19.02%)p 4.25( 80.89%)d 0.00(  0.09%)
                                         0.0002  0.4360  0.0076 -0.0076 -0.0007
                                         0.3067 -0.0127 -0.0043  0.8034 -0.0400
                                         0.0031  0.2592 -0.0168  0.0099 -0.0109
                                        -0.0077 -0.0178  0.0177  0.0107
  33. (0.00436) RY*( 1) C 1             s( 23.60%)p 3.15( 74.39%)d 0.09(  2.01%)
                                         0.0000 -0.0201  0.4813 -0.0541 -0.0309
                                         0.0459 -0.7530  0.0161  0.0410 -0.3734
                                         0.0101 -0.0047 -0.1820 -0.0163 -0.1148
                                         0.0105 -0.0158  0.0786 -0.0190
  34. (0.00288) RY*( 2) C 1             s(  0.74%)p99.99( 94.13%)d 6.89(  5.13%)
                                         0.0000  0.0128  0.0833  0.0128  0.0136
                                        -0.0201 -0.1553  0.0800  0.0048  0.7449
                                        -0.0317 -0.0207 -0.5936 -0.0401 -0.0923
                                         0.1499 -0.0992 -0.0265 -0.0988
  35. (0.00135) RY*( 3) C 1             s(  3.68%)p12.45( 45.78%)d13.75( 50.54%)
                                         0.0000 -0.0032  0.1378  0.1333 -0.0001
                                         0.0099  0.3243 -0.0902 -0.0021 -0.3913
                                        -0.0973 -0.0214 -0.4112 -0.1111  0.2422
                                         0.5932  0.0855 -0.2132 -0.2052
  36. (0.00103) RY*( 4) C 1             s( 25.04%)p 0.89( 22.33%)d 2.10( 52.62%)
                                         0.0000  0.0042  0.3745  0.3296 -0.0382
                                         0.0064  0.0171 -0.4116 -0.0078  0.1450
                                        -0.1584  0.0108  0.0351 -0.0782  0.3872
                                        -0.4392 -0.0220 -0.4233  0.0616
  37. (0.00077) RY*( 5) C 1             s(  5.39%)p 9.35( 50.42%)d 8.19( 44.19%)
                                         0.0000 -0.0042 -0.1165  0.2009 -0.0016
                                         0.0101  0.1798  0.3524  0.0087 -0.2851
                                         0.1950  0.0056 -0.4744 -0.0561  0.1439
                                        -0.5222 -0.3230  0.1990 -0.0676
  38. (0.00037) RY*( 6) C 1             s( 26.43%)p 0.57( 14.93%)d 2.22( 58.64%)
                                         0.0000 -0.0021  0.3144  0.4066  0.0092
                                        -0.0207  0.2895 -0.1041  0.0062 -0.0279
                                        -0.0287  0.0004  0.0156 -0.2288 -0.6146
                                         0.0760 -0.1590  0.1742  0.3838
  39. (0.00027) RY*( 7) C 1             s( 29.45%)p 1.48( 43.55%)d 0.92( 27.00%)
                                         0.0000  0.0026  0.5172  0.1628  0.0224
                                         0.0301  0.1618  0.3811  0.0107  0.1906
                                         0.3923  0.0045  0.2116  0.1673  0.3118
                                         0.1090  0.2874  0.2797 -0.0098
  40. (0.00020) RY*( 8) C 1             s( 23.28%)p 2.12( 49.23%)d 1.18( 27.49%)
                                         0.0000 -0.0054 -0.2296  0.4243  0.0031
                                        -0.0066 -0.1800  0.3485 -0.0044 -0.0112
                                        -0.5794  0.0096 -0.0491 -0.0039  0.0995
                                        -0.0165  0.4503  0.1080  0.2243
  41. (0.00005) RY*( 9) C 1             s(  1.09%)p70.18( 76.68%)d20.35( 22.23%)
  42. (0.00005) RY*(10) C 1             s( 40.58%)p 1.17( 47.59%)d 0.29( 11.84%)
  43. (0.00001) RY*(11) C 1             s(  3.30%)p12.89( 42.51%)d16.44( 54.20%)
  44. (0.00001) RY*(12) C 1             s( 15.56%)p 2.22( 34.54%)d 3.21( 49.89%)
  45. (0.00001) RY*(13) C 1             s( 98.65%)p 0.01(  0.71%)d 0.01(  0.63%)
  46. (0.00001) RY*(14) C 1             s(  3.08%)p 1.24(  3.83%)d30.24( 93.09%)
  47. (0.00304) RY*( 1) C 2             s(  2.44%)p37.63( 91.72%)d 2.40(  5.84%)
                                         0.0000 -0.0161  0.1444  0.0527 -0.0223
                                         0.0421  0.1025 -0.1201  0.0045  0.6730
                                        -0.0130 -0.0078 -0.6612 -0.0080 -0.1353
                                         0.0458  0.0582 -0.0601  0.1761
  48. (0.00216) RY*( 2) C 2             s( 28.22%)p 2.33( 65.64%)d 0.22(  6.14%)
                                         0.0000 -0.0055  0.4909 -0.2020 -0.0205
                                         0.0209 -0.7335 -0.0156 -0.0208 -0.1892
                                         0.0765  0.0331 -0.2695  0.0442 -0.0499
                                        -0.0534 -0.0015  0.0010 -0.2367
  49. (0.00129) RY*( 3) C 2             s(  9.91%)p 4.83( 47.84%)d 4.27( 42.25%)
                                         0.0000 -0.0035  0.3030  0.0791  0.0313
                                         0.0007  0.1304  0.0508  0.0029  0.4758
                                         0.2099  0.0190  0.4239  0.0911 -0.1311
                                        -0.3785 -0.0041  0.0170 -0.5116
  50. (0.00080) RY*( 4) C 2             s( 13.01%)p 2.53( 32.97%)d 4.15( 54.02%)
                                         0.0000 -0.0012  0.2880  0.2065  0.0672
                                         0.0198 -0.1634  0.2562 -0.0060  0.1616
                                        -0.2340  0.0021  0.3431  0.1957 -0.3297
                                         0.4397 -0.3261 -0.1717  0.3199
  51. (0.00061) RY*( 5) C 2             s( 27.66%)p 2.23( 61.63%)d 0.39( 10.71%)
                                         0.0000  0.0005  0.4949  0.1781 -0.0006
                                        -0.0114  0.4650  0.0388  0.0127 -0.3868
                                         0.4219  0.0001 -0.1799  0.1958  0.0757
                                         0.0275 -0.0089 -0.3033  0.0925
  52. (0.00039) RY*( 6) C 2             s(  5.22%)p11.91( 62.21%)d 6.24( 32.56%)
                                         0.0000  0.0075  0.1860  0.1317 -0.0145
                                         0.0059  0.2345  0.3667  0.0061 -0.2527
                                        -0.4352  0.0032 -0.1830 -0.3818 -0.4596
                                        -0.2013  0.1425  0.1878 -0.1355
  53. (0.00020) RY*( 7) C 2             s( 31.39%)p 1.05( 33.10%)d 1.13( 35.51%)
                                         0.0000 -0.0040 -0.0154  0.5419 -0.1415
                                         0.0113 -0.0119  0.0259 -0.0160 -0.0516
                                        -0.2294  0.0135 -0.1819  0.4911  0.2754
                                         0.0745 -0.0897  0.4511 -0.2493
  54. (0.00017) RY*( 8) C 2             s( 24.81%)p 1.93( 47.95%)d 1.10( 27.24%)
                                         0.0000 -0.0045 -0.0641  0.4851  0.0929
                                         0.0025 -0.2983  0.2943 -0.0047  0.0643
                                         0.4781 -0.0069  0.0640 -0.2589  0.0269
                                        -0.1320  0.2718  0.2332  0.3550
  55. (0.00009) RY*( 9) C 2             s( 25.94%)p 2.45( 63.51%)d 0.41( 10.55%)
  56. (0.00004) RY*(10) C 2             s(  4.85%)p 6.90( 33.46%)d12.72( 61.69%)
  57. (0.00004) RY*(11) C 2             s( 11.44%)p 2.44( 27.89%)d 5.30( 60.67%)
  58. (0.00000) RY*(12) C 2             s( 94.03%)p 0.03(  2.43%)d 0.04(  3.54%)
  59. (0.00000) RY*(13) C 2             s( 19.12%)p 1.13( 21.60%)d 3.10( 59.28%)
  60. (0.00000) RY*(14) C 2             s(  1.90%)p 4.47(  8.51%)d47.09( 89.59%)
  61. (0.00235) RY*( 1) H 3             s( 99.39%)p 0.01(  0.61%)
                                        -0.0074  0.9969 -0.0748  0.0218 -0.0058
  62. (0.00006) RY*( 2) H 3             s(  0.48%)p99.99( 99.52%)
  63. (0.00002) RY*( 3) H 3             s(  0.12%)p99.99( 99.88%)
  64. (0.00000) RY*( 4) H 3             s(  0.07%)p99.99( 99.93%)
  65. (0.00108) RY*( 1) H 4             s( 98.84%)p 0.01(  1.16%)
                                        -0.0031  0.9942 -0.0725  0.0707 -0.0366
  66. (0.00003) RY*( 2) H 4             s(  1.14%)p86.53( 98.86%)
  67. (0.00004) RY*( 3) H 4             s(  0.02%)p99.99( 99.98%)
  68. (0.00000) RY*( 4) H 4             s(  0.06%)p99.99( 99.94%)
  69. (0.00332) RY*( 1) N 5             s(  3.78%)p24.73( 93.58%)d 0.70(  2.63%)
                                         0.0000  0.0065  0.1864  0.0540  0.0120
                                         0.0121  0.2545  0.0296 -0.0145 -0.0732
                                        -0.0321 -0.0227 -0.9184 -0.1393 -0.0581
                                        -0.0824  0.0113  0.0349 -0.1218
  70. (0.00234) RY*( 2) N 5             s( 72.79%)p 0.32( 23.25%)d 0.05(  3.96%)
                                         0.0000 -0.0008  0.8530 -0.0072 -0.0144
                                        -0.0235 -0.0787  0.1327 -0.0187 -0.4154
                                         0.0128  0.0068  0.1816  0.0449 -0.1077
                                         0.1297  0.0532  0.0905 -0.0130
  71. (0.00128) RY*( 3) N 5             s(  4.65%)p19.49( 90.53%)d 1.04(  4.82%)
                                         0.0000 -0.0103  0.1903 -0.1003 -0.0092
                                         0.0259 -0.7584 -0.1361 -0.0128  0.3212
                                         0.3877  0.0080 -0.2178 -0.0992  0.1071
                                        -0.0443  0.0364 -0.1817  0.0209
  72. (0.00078) RY*( 4) N 5             s(  6.71%)p 9.78( 65.65%)d 4.12( 27.64%)
                                         0.0000 -0.0186  0.2554 -0.0085  0.0384
                                        -0.0151  0.4042  0.0509 -0.0010  0.5884
                                         0.3379 -0.0035  0.0658  0.1598  0.3278
                                         0.1957  0.1724  0.3123 -0.0584
  73. (0.00033) RY*( 5) N 5             s(  6.45%)p10.17( 65.55%)d 4.34( 28.00%)
                                         0.0000  0.0148 -0.1212  0.2223 -0.0125
                                         0.0000 -0.3128  0.3281 -0.0116  0.0665
                                        -0.3026 -0.0082 -0.2112  0.5561 -0.0807
                                         0.3456  0.2714  0.1799  0.2191
  74. (0.00027) RY*( 6) N 5             s( 36.14%)p 0.52( 18.74%)d 1.25( 45.12%)
                                         0.0000  0.0128  0.0197  0.5961  0.0738
                                         0.0086 -0.1247 -0.2904  0.0160 -0.1517
                                        -0.1005 -0.0034  0.0194 -0.2318  0.4335
                                        -0.2005  0.0645  0.3926  0.2545
  75. (0.00018) RY*( 7) N 5             s( 31.27%)p 0.27(  8.36%)d 1.93( 60.36%)
                                         0.0000 -0.0056  0.0708  0.5477  0.0878
                                         0.0016  0.1867 -0.0333 -0.0286  0.0930
                                         0.1756  0.0010  0.0821  0.0242 -0.2502
                                        -0.0890  0.4241 -0.5927  0.0453
  76. (0.00016) RY*( 8) N 5             s(  1.62%)p40.05( 64.91%)d20.65( 33.47%)
                                         0.0000  0.0033  0.0070  0.1224 -0.0341
                                         0.0184  0.0132  0.7857  0.0154  0.0260
                                         0.1538 -0.0009  0.0177 -0.0802  0.2208
                                        -0.3433 -0.3039 -0.1232  0.2461
  77. (0.00009) RY*( 9) N 5             s(  7.28%)p 5.56( 40.48%)d 7.17( 52.24%)
  78. (0.00006) RY*(10) N 5             s(  1.59%)p31.17( 49.65%)d30.61( 48.76%)
  79. (0.00004) RY*(11) N 5             s(  2.20%)p 9.40( 20.67%)d35.08( 77.13%)
  80. (0.00003) RY*(12) N 5             s(  8.97%)p 5.55( 49.78%)d 4.60( 41.24%)
  81. (0.00001) RY*(13) N 5             s( 94.44%)p 0.03(  3.12%)d 0.03(  2.44%)
  82. (0.00001) RY*(14) N 5             s( 22.15%)p 0.28(  6.16%)d 3.24( 71.68%)
  83. (0.00089) RY*( 1) H 6             s( 98.20%)p 0.02(  1.80%)
                                        -0.0070  0.9909  0.1164 -0.0670 -0.0011
  84. (0.00039) RY*( 2) H 6             s(  0.03%)p99.99( 99.97%)
                                        -0.0012  0.0174 -0.2267 -0.1517  0.9619
  85. (0.00008) RY*( 3) H 6             s(  0.50%)p99.99( 99.50%)
  86. (0.00001) RY*( 4) H 6             s(  1.37%)p72.14( 98.63%)
  87. (0.04021) RY*( 1) P 7             s(  0.05%)p99.99( 12.12%)d99.99( 87.83%)
                                         0.0000  0.0000 -0.0110  0.0170  0.0085
                                        -0.0007  0.0000 -0.0820 -0.1406 -0.0553
                                         0.0000 -0.0400 -0.0113 -0.0088  0.0000
                                         0.1429  0.2579  0.0541  0.2238  0.3992
                                         0.1071  0.2476 -0.7721
  88. (0.02090) RY*( 2) P 7             s(  0.29%)p43.33( 12.67%)d99.99( 87.04%)
                                         0.0000  0.0000 -0.0066  0.0509  0.0098
                                         0.0140  0.0000  0.0654  0.2051 -0.0067
                                         0.0000  0.0380  0.0999  0.0281  0.0000
                                         0.0837  0.2470  0.0097 -0.1103  0.7812
                                         0.2404 -0.1445  0.4114
[...]
  31. LP ( 2) O 9          / 92. RY*( 6) P 7              0.83    0.96    0.026
  31. LP ( 2) O 9          /127. RY*(14) O 9              0.53    2.18    0.032
  31. LP ( 2) O 9          /166. BD*( 1) N 5- P 7        11.71    0.62    0.077
  31. LP ( 2) O 9          /167. BD*( 1) P 7- O 8         1.05    0.73    0.025
  31. LP ( 2) O 9          /170. BD*( 1) P 7- N10        19.18    0.53    0.090
  32. LP ( 1) N10          / 89. RY*( 3) P 7              3.60    1.11    0.057
  32. LP ( 1) N10          /143. RY*( 2) H11              0.71    2.66    0.040
  32. LP ( 1) N10          /147. RY*( 2) H12              0.65    2.60    0.037
  32. LP ( 1) N10          /166. BD*( 1) N 5- P 7         3.39    0.67    0.043
  32. LP ( 1) N10          /167. BD*( 1) P 7- O 8         3.74    0.78    0.049
  32. LP ( 1) N10          /168. BD*( 1) P 7- O 9         1.78    0.68    0.031
  32. LP ( 1) N10          /169. BD*( 2) P 7- O 9         5.69    0.70    0.057
 166. BD*( 1) N 5- P 7     / 71. RY*( 3) N 5              0.67    0.59    0.069
 166. BD*( 1) N 5- P 7     / 73. RY*( 5) N 5              0.68    0.41    0.058
 166. BD*( 1) N 5- P 7     / 87. RY*( 1) P 7              3.16    0.54    0.124
 166. BD*( 1) N 5- P 7     / 88. RY*( 2) P 7              2.64    0.59    0.127
 166. BD*( 1) N 5- P 7     / 89. RY*( 3) P 7              0.79    0.44    0.061
 166. BD*( 1) N 5- P 7     / 93. RY*( 7) P 7              0.95    0.19    0.047
 166. BD*( 1) N 5- P 7     /163. BD*( 1) C 2- H 4         0.89    0.06    0.025
 166. BD*( 1) N 5- P 7     /165. BD*( 1) N 5- H 6         2.08    0.12    0.052
 166. BD*( 1) N 5- P 7     /167. BD*( 1) P 7- O 8        46.14    0.11    0.180
 166. BD*( 1) N 5- P 7     /169. BD*( 2) P 7- O 9       211.64    0.03    0.192
 166. BD*( 1) N 5- P 7     /171. BD*( 1) N10- H11         0.69    0.14    0.033
 167. BD*( 1) P 7- O 8     / 89. RY*( 3) P 7              1.20    0.32    0.067
 167. BD*( 1) P 7- O 8     / 91. RY*( 5) P 7              0.88    0.35    0.062
 167. BD*( 1) P 7- O 8     / 92. RY*( 6) P 7              1.33    0.23    0.063
 167. BD*( 1) P 7- O 8     /106. RY*( 7) O 8              0.86    1.19    0.115
 167. BD*( 1) P 7- O 8     /108. RY*( 9) O 8              0.79    1.69    0.132
 167. BD*( 1) P 7- O 8     /110. RY*(11) O 8              0.94    1.34    0.128
 167. BD*( 1) P 7- O 8     /172. BD*( 1) N10- H12         1.33    0.02    0.019
 168. BD*( 1) P 7- O 9     / 87. RY*( 1) P 7              2.06    0.53    0.103
 168. BD*( 1) P 7- O 9     / 88. RY*( 2) P 7             12.72    0.58    0.288
 168. BD*( 1) P 7- O 9     / 90. RY*( 4) P 7              0.82    0.25    0.051
 168. BD*( 1) P 7- O 9     / 91. RY*( 5) P 7              1.90    0.45    0.105
 168. BD*( 1) P 7- O 9     /115. RY*( 2) O 9              0.93    0.79    0.099
 168. BD*( 1) P 7- O 9     /116. RY*( 3) O 9              0.50    0.88    0.077
 168. BD*( 1) P 7- O 9     /167. BD*( 1) P 7- O 8        56.48    0.10    0.195
 168. BD*( 1) P 7- O 9     /169. BD*( 2) P 7- O 9         8.89    0.02    0.034
 168. BD*( 1) P 7- O 9     /171. BD*( 1) N10- H11         0.70    0.13    0.034
 168. BD*( 1) P 7- O 9     /172. BD*( 1) N10- H12         0.65    0.12    0.032
 169. BD*( 2) P 7- O 9     / 70. RY*( 2) N 5              0.56    0.79    0.069
 169. BD*( 2) P 7- O 9     / 87. RY*( 1) P 7              0.83    0.51    0.059
 169. BD*( 2) P 7- O 9     / 88. RY*( 2) P 7              3.00    0.56    0.126
 169. BD*( 2) P 7- O 9     / 89. RY*( 3) P 7              2.13    0.40    0.092
 169. BD*( 2) P 7- O 9     / 93. RY*( 7) P 7              8.33    0.16    0.120
 169. BD*( 2) P 7- O 9     /101. RY*( 2) O 8              1.31    0.66    0.097
 169. BD*( 2) P 7- O 9     /102. RY*( 3) O 8              1.18    0.70    0.095
 169. BD*( 2) P 7- O 9     /122. RY*( 9) O 9              1.02    1.23    0.117
 169. BD*( 2) P 7- O 9     /124. RY*(11) O 9              0.54    1.60    0.098
 169. BD*( 2) P 7- O 9     /167. BD*( 1) P 7- O 8       106.38    0.08    0.227
 169. BD*( 2) P 7- O 9     /172. BD*( 1) N10- H12         2.14    0.10    0.048
 170. BD*( 1) P 7- N10     / 87. RY*( 1) P 7              8.92    0.63    0.216
 170. BD*( 1) P 7- N10     / 91. RY*( 5) P 7              1.32    0.55    0.087
 170. BD*( 1) P 7- N10     / 99. RY*(13) P 7              1.19    0.02    0.016
 170. BD*( 1) P 7- N10     /128. RY*( 1) N10              0.51    0.78    0.066
 170. BD*( 1) P 7- N10     /129. RY*( 2) N10              0.63    0.61    0.064
 170. BD*( 1) P 7- N10     /131. RY*( 4) N10              0.59    0.90    0.076
 170. BD*( 1) P 7- N10     /138. RY*(11) N10              0.79    1.65    0.119
 170. BD*( 1) P 7- N10     /167. BD*( 1) P 7- O 8         7.09    0.20    0.092
 170. BD*( 1) P 7- N10     /169. BD*( 2) P 7- O 9         7.67    0.12    0.071
 170. BD*( 1) P 7- N10     /171. BD*( 1) N10- H11         0.58    0.23    0.037
 170. BD*( 1) P 7- N10     /172. BD*( 1) N10- H12         0.79    0.23    0.043


 Natural Bond Orbitals (Summary):

                                                     Principal Delocalizations
           NBO              Occupancy    Energy      (geminal,vicinal,remote)
 ===============================================================================
 Molecular unit  1  (C2H7N2O2P)
   1. BD ( 1) C 1- C 2       1.99001    -0.63184    165(v)
   2. BD ( 1) C 1- O 8       1.98848    -0.82921    169(v),166(v),163(v),93(v)
   3. BD ( 1) C 1- H13       1.98934    -0.53633    162(v),47(v),100(v)
   4. BD ( 1) C 1- H14       1.98699    -0.54357    164(v),167(v)
   5. BD ( 1) C 2- H 3       1.98988    -0.53385    160(v),69(v),34(v)
   6. BD ( 1) C 2- H 4       1.98291    -0.53751    159(v),166(v)
   7. BD ( 1) C 2- N 5       1.98796    -0.75163    168(v),167(v),161(v),159(v)
   8. BD ( 1) N 5- H 6       1.98907    -0.67905    169(v),158(v),168(v)
   9. BD ( 1) N 5- P 7       1.93051    -0.68553    169(g),167(g),47(v),163(v)
                                                    48(v),168(g),171(v),97(g)
  10. BD ( 1) P 7- O 8       1.89734    -0.72171    169(g),166(g),168(g),170(g)
                                                    33(v),167(g),161(v),165(v)
                                                    97(g),102(g)
  11. BD ( 1) P 7- O 9       1.94987    -0.76746    169(g),167(g),166(g)
  12. BD ( 2) P 7- O 9       1.93148    -0.40255    167(g),168(g),166(g),170(g)
                                                    102(v),172(v),101(v),97(g)
                                                    164(v),169(g)
  13. BD ( 1) P 7- N10       1.97188    -0.72520    169(g),167(g),87(g),159(v)
                                                    166(g)
  14. BD ( 1) N10- H11       1.98999    -0.66553    166(v),90(v),169(v),87(v)
  15. BD ( 1) N10- H12       1.98998    -0.67127    168(v),90(v)
  16. CR ( 1) C 1            1.99938   -10.14563    159(g),167(v)
  17. CR ( 1) C 2            1.99947   -10.11906    166(v),165(v)
  18. CR ( 1) N 5            1.99956   -14.20747    48(v),168(v),169(v),92(v)
  19. CR ( 1) P 7            2.00000   -76.11302    167(g)
  20. CR ( 2) P 7            1.99910    -7.61568    167(g),168(g),169(g),165(v)
                                                    172(v),159(v),164(v),171(v)
                                                    166(g),170(g),116(v)
  21. CR ( 3) P 7            1.99981    -4.82038     
  22. CR ( 4) P 7            1.99984    -4.82331     
  23. CR ( 5) P 7            1.99987    -4.82094     
  24. CR ( 1) O 8            1.99982   -18.98865    169(v),33(v),93(v)
  25. CR ( 1) O 9            1.99987   -18.87742    88(v),90(v),169(g)
  26. CR ( 1) N10            1.99967   -14.21826    94(v),87(v),142(v),146(v)
  27. LP ( 1) N 5            1.87980    -0.27923    170(v),162(v),168(v),163(v)
                                                    169(v),87(v),88(v),89(v)
                                                    84(v),49(v)
  28. LP ( 1) O 8            1.96464    -0.60364    169(v),33(v),158(v),91(v)
                                                    170(v),161(v),168(v)
  29. LP ( 2) O 8            1.90822    -0.33345    168(v),160(v),170(v),158(v)
                                                    89(v),161(v),35(v),88(v)
  30. LP ( 1) O 9            1.97861    -0.71552    90(v),166(v),169(g),167(v)
                                                    170(v),88(v)
  31. LP ( 2) O 9            1.82698    -0.25294    170(v),166(v),87(v),88(v)
                                                    167(v),92(v),91(v),127(g)
  32. LP ( 1) N10            1.90798    -0.30712    169(v),167(v),89(v),166(v)
                                                    168(v),143(v),147(v)
  33. RY*( 1) C 1            0.00400     0.69646     
  34. RY*( 2) C 1            0.00258     0.94898     
  35. RY*( 3) C 1            0.00119     1.67175     
  36. RY*( 4) C 1            0.00104     1.35909     
  37. RY*( 5) C 1            0.00089     1.41127     
  38. RY*( 6) C 1            0.00033     1.26024     
  39. RY*( 7) C 1            0.00028     1.65632     
  40. RY*( 8) C 1            0.00018     1.20771     
  41. RY*( 9) C 1            0.00008     1.15651     
  42. RY*(10) C 1            0.00006     0.60077     
  43. RY*(11) C 1            0.00001     3.16701     
  44. RY*(12) C 1            0.00001     1.26699     
  45. RY*(13) C 1            0.00001     1.44478     
  46. RY*(14) C 1            0.00000     1.91576     
  47. RY*( 1) C 2            0.00309     0.84853     
  48. RY*( 2) C 2            0.00231     0.85166     
  49. RY*( 3) C 2            0.00164     1.14478     
  50. RY*( 4) C 2            0.00091     1.52943     
  51. RY*( 5) C 2            0.00049     0.84852     
  52. RY*( 6) C 2            0.00044     1.19646     
  53. RY*( 7) C 2            0.00024     1.33572     
  54. RY*( 8) C 2            0.00015     1.16726     
  55. RY*( 9) C 2            0.00013     0.64355     
  56. RY*(10) C 2            0.00004     1.57729     
  57. RY*(11) C 2            0.00002     1.17142     
  58. RY*(12) C 2            0.00000     3.64383     
  59. RY*(13) C 2            0.00001     1.50632     
  60. RY*(14) C 2            0.00001     2.13456     
  61. RY*( 1) H 3            0.00178     0.75184     
  62. RY*( 2) H 3            0.00005     2.30962     
  63. RY*( 3) H 3            0.00003     2.39547     
  64. RY*( 4) H 3            0.00000     3.05159     
  65. RY*( 1) H 4            0.00103     0.73017     
  66. RY*( 2) H 4            0.00006     2.32584     
  67. RY*( 3) H 4            0.00003     2.37928     
  68. RY*( 4) H 4            0.00000     3.06941     
  69. RY*( 1) N 5            0.00351     0.62273     
  70. RY*( 2) N 5            0.00163     1.18570     
  71. RY*( 3) N 5            0.00105     0.95837     
  72. RY*( 4) N 5            0.00064     1.66916     
  73. RY*( 5) N 5            0.00030     0.77734     
  74. RY*( 6) N 5            0.00026     0.84125     
  75. RY*( 7) N 5            0.00018     1.58093     
  76. RY*( 8) N 5            0.00013     1.57885     
  77. RY*( 9) N 5            0.00007     1.32674     
  78. RY*(10) N 5            0.00005     1.69888     
  79. RY*(11) N 5            0.00003     1.50858     
  80. RY*(12) N 5            0.00002     1.93315     
  81. RY*(13) N 5            0.00002     2.03029     
  82. RY*(14) N 5            0.00000     3.01723     
  83. RY*( 1) H 6            0.00089     0.80415     
  84. RY*( 2) H 6            0.00041     2.34841     
  85. RY*( 3) H 6            0.00006     2.48169     
  86. RY*( 4) H 6            0.00001     3.17641     
  87. RY*( 1) P 7            0.04490     0.90102     
  88. RY*( 2) P 7            0.02208     0.95054     
  89. RY*( 3) P 7            0.01559     0.80017     
  90. RY*( 4) P 7            0.00684     0.61955     
  91. RY*( 5) P 7            0.00468     0.82289     
  92. RY*( 6) P 7            0.00220     0.70924     
  93. RY*( 7) P 7            0.00185     0.55653     
  94. RY*( 8) P 7            0.00108     0.64530     
  95. RY*( 9) P 7            0.00043     0.97355     
  96. RY*(10) P 7            0.00013     2.40654     
  97. RY*(11) P 7            0.00004     0.22983     
  98. RY*(12) P 7            0.00003     0.31967     
  99. RY*(13) P 7            0.00001     0.29237     
 100. RY*( 1) O 8            0.00252     0.61375     
 101. RY*( 2) O 8            0.00167     1.05669     
 102. RY*( 3) O 8            0.00126     1.09959     
 103. RY*( 4) O 8            0.00044     0.70668     
 104. RY*( 5) O 8            0.00028     1.45936     
 105. RY*( 6) O 8            0.00022     1.37709     
 106. RY*( 7) O 8            0.00011     1.66581     
 107. RY*( 8) O 8            0.00009     1.35423     
 108. RY*( 9) O 8            0.00003     2.16331     
 109. RY*(10) O 8            0.00003     1.70627     
 110. RY*(11) O 8            0.00002     1.82109     
 111. RY*(12) O 8            0.00001     1.71925     
 112. RY*(13) O 8            0.00001     2.06968     
 113. RY*(14) O 8            0.00000     3.30937     
 114. RY*( 1) O 9            0.00069     1.09468     
 115. RY*( 2) O 9            0.00040     1.16051     
 116. RY*( 3) O 9            0.00033     1.25190     
 117. RY*( 4) O 9            0.00029     0.66698     
 118. RY*( 5) O 9            0.00013     0.77644     
 119. RY*( 6) O 9            0.00008     1.23631     
 120. RY*( 7) O 9            0.00006     1.41477     
 121. RY*( 8) O 9            0.00002     1.77483     
 122. RY*( 9) O 9            0.00003     1.62156     
 123. RY*(10) O 9            0.00003     1.52155     
 124. RY*(11) O 9            0.00002     1.99211     
 125. RY*(12) O 9            0.00000     3.32566     
 126. RY*(13) O 9            0.00001     2.08681     
 127. RY*(14) O 9            0.00000     1.92266     
 128. RY*( 1) N10            0.00178     1.05809     
 129. RY*( 2) N10            0.00119     0.88139     
 130. RY*( 3) N10            0.00048     0.67397     
 131. RY*( 4) N10            0.00026     1.17370     
 132. RY*( 5) N10            0.00019     1.41509     
 133. RY*( 6) N10            0.00015     1.59748     
 134. RY*( 7) N10            0.00010     1.17870     
 135. RY*( 8) N10            0.00004     0.88637     
 136. RY*( 9) N10            0.00003     0.91829     
 137. RY*(10) N10            0.00002     1.62261     
 138. RY*(11) N10            0.00001     1.92649     
 139. RY*(12) N10            0.00000     3.74272     
 140. RY*(13) N10            0.00001     1.57794     
 141. RY*(14) N10            0.00001     1.27746     
 142. RY*( 1) H11            0.00093     0.69660     
 143. RY*( 2) H11            0.00039     2.34829     
 144. RY*( 3) H11            0.00007     2.43689     
 145. RY*( 4) H11            0.00001     3.17604     
 146. RY*( 1) H12            0.00081     0.75943     
 147. RY*( 2) H12            0.00036     2.29551     
 148. RY*( 3) H12            0.00007     2.44763     
 149. RY*( 4) H12            0.00001     3.11563     
 150. RY*( 1) H13            0.00147     0.74740     
 151. RY*( 2) H13            0.00006     2.31050     
 152. RY*( 3) H13            0.00003     2.40680     
 153. RY*( 4) H13            0.00000     3.05928     
 154. RY*( 1) H14            0.00086     0.73480     
 155. RY*( 2) H14            0.00004     2.32493     
 156. RY*( 3) H14            0.00005     2.35846     
 157. RY*( 4) H14            0.00001     3.07213     
 158. BD*( 1) C 1- C 2       0.01954     0.34047     
 159. BD*( 1) C 1- O 8       0.01811     0.24696     
 160. BD*( 1) C 1- H13       0.02188     0.43039     
 161. BD*( 1) C 1- H14       0.01431     0.43768     
 162. BD*( 1) C 2- H 3       0.02707     0.41680     
 163. BD*( 1) C 2- H 4       0.01709     0.42975     
 164. BD*( 1) C 2- N 5       0.01104     0.32909     
 165. BD*( 1) N 5- H 6       0.01116     0.48216     
 166. BD*( 1) N 5- P 7       0.13146     0.36510    169(g),167(g),168(g),158(v)
                                                    98(g),87(g),88(g),165(g)
                                                    164(g),97(g),93(g),163(v)
                                                    89(g),73(g),71(g),171(v)
 167. BD*( 1) P 7- O 8       0.12326     0.47697    169(g),165(v),168(g),166(g)
                                                    170(g),97(g),92(g),172(v)
                                                    89(g),110(g),106(g),91(g)
                                                    99(g),108(g),159(g)
 168. BD*( 1) P 7- O 9       0.11877     0.37434    167(g),166(g),88(g),169(g)
                                                    98(g),91(g),87(g),115(g)
                                                    90(g),171(v),172(v),116(g)
 169. BD*( 2) P 7- O 9       0.14568     0.39530    166(g),167(g),93(g),168(g)
                                                    170(g),97(g),164(v),88(g)
                                                    172(v),89(g),101(v),98(g)
                                                    102(v),122(g),87(g),70(v)
                                                    124(g)
 170. BD*( 1) P 7- N10       0.14694     0.27344    87(g),167(g),169(g),159(v)
                                                    91(g),99(g),138(g),172(g)
                                                    129(g),131(g),97(g),171(g)
                                                    128(g)
 171. BD*( 1) N10- H11       0.00634     0.50304     
 172. BD*( 1) N10- H12       0.00857     0.49849     
       -------------------------------
              Total Lewis   63.02831  ( 98.4817%)
        Valence non-Lewis    0.82123  (  1.2832%)
        Rydberg non-Lewis    0.15046  (  0.2351%)
       -------------------------------
            Total unit  1   64.00000  (100.0000%)
           Charge unit  1    0.00000
 Leave Link  607 at Sat Nov  6 23:47:40 1999, MaxMem=    6291456 cpu:       8.6
 (Enter /usr/local/apps/g98/g98_rev_A7/g98/l9999.exe)
 Final structure in terms of initial Z-matrix:
 C
 C,1,B1
 H,2,B2,1,A1
 H,2,B3,1,A2,3,D1,0
 N,2,B4,1,A3,3,D2,0
 H,5,B5,2,A4,1,D3,0
 P,5,B6,2,A5,1,D4,0
 O,7,B7,5,A6,2,D5,0
 O,7,B8,5,A7,2,D6,0
 N,7,B9,5,A8,2,D7,0
 H,10,B10,7,A9,5,D8,0
 H,10,B11,7,A10,5,D9,0
 H,1,B12,2,A11,5,D10,0
 H,1,B13,2,A12,5,D11,0
      Variables:
 B1=1.53664625
 B2=1.10102521
 B3=1.09514562
 B4=1.45936712
 B5=1.00936057
 B6=1.68092961
 B7=1.64749326
 B8=1.48429186
 B9=1.67608168
 B10=1.01249325
 B11=1.01244008
 B12=1.09586024
 B13=1.09141753
 A1=110.93659907
 A2=110.95066506
 A3=102.44931817
 A4=120.45379876
 A5=113.87781388
 A6=92.99913651
 A7=117.84738988
 A8=109.85828234
 A9=114.48989366
 A10=118.6653784
 A11=111.06557812
 A12=113.09070174
 D1=120.66071394
 D2=-120.32310263
 D3=-177.28082617
 D4=25.15029492
 D5=-5.96894664
 D6=-131.13127657
 D7=101.77049792
 D8=152.34247451
 D9=-69.43900256
 D10=82.55252471
 D11=-153.64783624
 1\1\GINC-TC02\FOpt\RB3LYP\6-31+G(d,p)\C2H7N2O2P1\COLVIN\06-Nov-1999\0\
 \#P OPT RB3LYP/6-31+G(D,P) POP=NBO\\PM anion struct 2d\\0,1\C,-0.00630
 18404,1.7350791594,-0.8383233282\C,-0.002225321,1.851322085,0.69391446
 41\H,1.0033616606,2.1001425344,1.0669288301\H,-0.6987944672,2.62683514
 69,1.0296447728\N,-0.4411895819,0.5236036647,1.1113190179\H,-0.5742585
 757,0.3127725232,2.0894047141\P,-0.1206732599,-0.6838244194,-0.0133636
 313\O,0.419807197,0.3894451895,-1.1403983581\O,-1.2254590537,-1.607665
 7225,-0.3726517035\N,1.2290633516,-1.5581123355,0.4589514474\H,1.24438
 23494,-2.5160363771,0.1314007826\H,2.1353102093,-1.1079341844,0.425918
 2964\H,-1.0127495822,1.8918094678,-1.2425611624\H,0.694108738,2.418694
 673,-1.3213213438\\Version=DEC-AXP-OSF/1-G98RevA.7\HF=-681.8177451\RMS
 D=9.131e-09\RMSF=1.254e-05\Dipole=1.3015783,1.4211639,0.8015607\PG=C01
  [X(C2H7N2O2P1)]\\@


 A BIRD IN THE HAND IS SAFER THAN ONE OVERHEAD.

                       -- NEWTON'S SEVENTH LAW
 Job cpu time:  0 days  9 hours 48 minutes 33.8 seconds.
 File lengths (MBytes):  RWF=   25 Int=    0 D2E=    0 Chk=    9 Scr=    1
 Normal termination of Gaussian 98.
